 Entering Gaussian System, Link 0=g16
 Input=one.gjf
 Output=one.log
 Initial command:
 /opt/ohpc/pub/apps/gaussian/avx2/g16/l1.exe "/home/yuc/calculation/H2_catecholate/O-Mg-O_H2/H2-cate_new_geo_opt/one_H2/Gau-610456.inp" -scrdir="/home/yuc/calculation/H2_catecholate/O-Mg-O_H2/H2-cate_new_geo_opt/one_H2/"
 Default CPUs for threads: 0-15,64-79
 Default is to use a total of  32 processors:
                               32 via shared-memory
                                1 via Linda
 Entering Link 1 = /opt/ohpc/pub/apps/gaussian/avx2/g16/l1.exe PID=    610460.
  
 Copyright (c) 1988-2017, Gaussian, Inc.  All Rights Reserved.
  
 This is part of the Gaussian(R) 16 program.  It is based on
 the Gaussian(R) 09 system (copyright 2009, Gaussian, Inc.),
 the Gaussian(R) 03 system (copyright 2003, Gaussian, Inc.),
 the Gaussian(R) 98 system (copyright 1998, Gaussian, Inc.),
 the Gaussian(R) 94 system (copyright 1995, Gaussian, Inc.),
 the Gaussian 92(TM) system (copyright 1992, Gaussian, Inc.),
 the Gaussian 90(TM) system (copyright 1990, Gaussian, Inc.),
 the Gaussian 88(TM) system (copyright 1988, Gaussian, Inc.),
 the Gaussian 86(TM) system (copyright 1986, Carnegie Mellon
 University), and the Gaussian 82(TM) system (copyright 1983,
 Carnegie Mellon University). Gaussian is a federally registered
 trademark of Gaussian, Inc.
  
 This software contains proprietary and confidential information,
 including trade secrets, belonging to Gaussian, Inc.
  
 This software is provided under written license and may be
 used, copied, transmitted, or stored only in accord with that
 written license.
  
 The following legend is applicable only to US Government
 contracts under FAR:
  
                    RESTRICTED RIGHTS LEGEND
  
 Use, reproduction and disclosure by the US Government is
 subject to restrictions as set forth in subparagraphs (a)
 and (c) of the Commercial Computer Software - Restricted
 Rights clause in FAR 52.227-19.
  
 Gaussian, Inc.
 340 Quinnipiac St., Bldg. 40, Wallingford CT 06492
  
  
 ---------------------------------------------------------------
 Warning -- This program may not be used in any manner that
 competes with the business of Gaussian, Inc. or will provide
 assistance to any competitor of Gaussian, Inc.  The licensee
 of this program is prohibited from giving any competitor of
 Gaussian, Inc. access to this program.  By using this program,
 the user acknowledges that Gaussian, Inc. is engaged in the
 business of creating and licensing software in the field of
 computational chemistry and represents and warrants to the
 licensee that it is not a competitor of Gaussian, Inc. and that
 it will not use this program in any manner prohibited above.
 ---------------------------------------------------------------
  

 Cite this work as:
 Gaussian 16, Revision B.01,
 M. J. Frisch, G. W. Trucks, H. B. Schlegel, G. E. Scuseria, 
 M. A. Robb, J. R. Cheeseman, G. Scalmani, V. Barone, 
 G. A. Petersson, H. Nakatsuji, X. Li, M. Caricato, A. V. Marenich, 
 J. Bloino, B. G. Janesko, R. Gomperts, B. Mennucci, H. P. Hratchian, 
 J. V. Ortiz, A. F. Izmaylov, J. L. Sonnenberg, D. Williams-Young, 
 F. Ding, F. Lipparini, F. Egidi, J. Goings, B. Peng, A. Petrone, 
 T. Henderson, D. Ranasinghe, V. G. Zakrzewski, J. Gao, N. Rega, 
 G. Zheng, W. Liang, M. Hada, M. Ehara, K. Toyota, R. Fukuda, 
 J. Hasegawa, M. Ishida, T. Nakajima, Y. Honda, O. Kitao, H. Nakai, 
 T. Vreven, K. Throssell, J. A. Montgomery, Jr., J. E. Peralta, 
 F. Ogliaro, M. J. Bearpark, J. J. Heyd, E. N. Brothers, K. N. Kudin, 
 V. N. Staroverov, T. A. Keith, R. Kobayashi, J. Normand, 
 K. Raghavachari, A. P. Rendell, J. C. Burant, S. S. Iyengar, 
 J. Tomasi, M. Cossi, J. M. Millam, M. Klene, C. Adamo, R. Cammi, 
 J. W. Ochterski, R. L. Martin, K. Morokuma, O. Farkas, 
 J. B. Foresman, and D. J. Fox, Gaussian, Inc., Wallingford CT, 2016.
 
 ******************************************
 Gaussian 16:  ES64L-G16RevB.01 20-Dec-2017
                13-Sep-2024 
 ******************************************
 SetSPE:  set environment variable "MP_BIND" = "yes"
 SetSPE:  set environment variable "MP_BLIST" = "0,1,2,3,4,5,6,7,8,9,10,11,12,13,14,15,64,65,66,67,68,69,70,71,72,73,74,75,76,77,78,79"
 -------------------------------------------------
 # opt freq MP2/6-311+g(d,p) nosymm counterpoise=2
 -------------------------------------------------
 1/18=20,19=15,38=1,62=2/1,3;
 2/9=110,12=2,15=1,17=6,18=5,40=1/2;
 1/18=20,19=15,38=1,53=2,62=2,63=101/22;
 3/5=4,6=6,7=111,11=9,25=1,30=1,71=1/1,2,3;
 4//1;
 5/5=2,38=5/2;
 8/6=4,10=2/1;
 9/15=2,16=-3/6;
 10/5=1,31=1/2;
 6/7=2,8=2,9=2,10=2/1;
 7/7=1,12=2,30=1,33=-1/1,2,3,16;
 1/18=20,19=15,53=2,62=2,63=101/22;
 3/5=7,6=11,7=111,11=9,25=1,30=1,71=1,82=7/1,2,3;
 4//1;
 5/5=2,38=5/2;
 8/6=4,10=2/1;
 9/15=2,16=-3/6;
 10/5=1,31=1/2;
 6/7=2,8=2,9=2,10=2/1;
 7/7=1,12=2,30=1,33=-1/1,2,3,16;
 1/18=20,19=15,53=2,62=2,63=101/22(-8);
 7/9=1,44=-1,126=2/16;
 1/18=20,19=15,62=2/3(2);
 2/9=110,15=1/2;
 99//99;
 2/9=110,15=1/2;
 1/18=20,19=15,53=3,62=2,63=101/22;
 3/5=7,6=11,7=111,11=9,25=1,30=1,71=1,82=7/1,2,3;
 4/5=5,16=3,69=1/1;
 5/5=2,38=5/2;
 8/6=4,10=2/1;
 9/15=2,16=-3/6;
 10/5=1,31=1/2;
 7/7=1,12=2,30=1,33=-1/1,2,3,16;
 1/18=20,19=15,53=3,62=2,63=101/22(-7);
 7/9=1,44=-1,126=2/16;
 1/18=20,19=15,62=2/3(-11);
 2/9=110,15=1/2;
 99/9=10/99;
 ---
 one
 ---
 Symbolic Z-matrix:
 Charge =  0 Multiplicity = 1 in supermolecule
 Charge =  0 Multiplicity = 1 in fragment      1.
 Charge =  0 Multiplicity = 1 in fragment      2.
 C(Fragment=1)        -0.0246    1.40007   0. 
 C(Fragment=1)        -1.23749   0.70046   0. 
 C(Fragment=1)        -1.23752  -0.70037   0. 
 C(Fragment=1)        -0.02464  -1.40013   0. 
 C(Fragment=1)         1.20009  -0.71843   0. 
 C(Fragment=1)         1.20005   0.71823   0. 
 O(Fragment=1)         2.38325   1.407     0. 
 O(Fragment=1)         2.38332  -1.40713   0. 
 H(Fragment=1)        -2.17586  -1.2491    0. 
 H(Fragment=1)        -2.17583   1.24922   0. 
 Mg(Fragment=1)        3.62158  -0.00001   0. 
 H(Fragment=1)         0.00115   2.48713   0. 
 H(Fragment=1)         0.00093  -2.48721   0. 
 H(Fragment=2)         5.78279   0.00013   0.37438 
 H(Fragment=2)         5.78279   0.00013  -0.37438 
 
 Add virtual bond connecting atoms H14        and Mg11       Dist= 4.14D+00.
 Add virtual bond connecting atoms H15        and Mg11       Dist= 4.14D+00.

 GradGradGradGradGradGradGradGradGradGradGradGradGradGradGradGradGradGrad
 Berny optimization.
 Initialization pass.
                           ----------------------------
                           !    Initial Parameters    !
                           ! (Angstroms and Degrees)  !
 --------------------------                            --------------------------
 ! Name  Definition              Value          Derivative Info.                !
 --------------------------------------------------------------------------------
 ! R1    R(1,2)                  1.4002         estimate D2E/DX2                !
 ! R2    R(1,6)                  1.4017         estimate D2E/DX2                !
 ! R3    R(1,12)                 1.0874         estimate D2E/DX2                !
 ! R4    R(2,3)                  1.4008         estimate D2E/DX2                !
 ! R5    R(2,10)                 1.087          estimate D2E/DX2                !
 ! R6    R(3,4)                  1.4003         estimate D2E/DX2                !
 ! R7    R(3,9)                  1.087          estimate D2E/DX2                !
 ! R8    R(4,5)                  1.4017         estimate D2E/DX2                !
 ! R9    R(4,13)                 1.0874         estimate D2E/DX2                !
 ! R10   R(5,6)                  1.4367         estimate D2E/DX2                !
 ! R11   R(5,8)                  1.3691         estimate D2E/DX2                !
 ! R12   R(5,11)                 2.5258         estimate D2E/DX2                !
 ! R13   R(6,7)                  1.3691         estimate D2E/DX2                !
 ! R14   R(6,11)                 2.5258         estimate D2E/DX2                !
 ! R15   R(7,11)                 1.8743         estimate D2E/DX2                !
 ! R16   R(8,11)                 1.8744         estimate D2E/DX2                !
 ! R17   R(11,14)                2.1934         estimate D2E/DX2                !
 ! R18   R(11,15)                2.1934         estimate D2E/DX2                !
 ! R19   R(14,15)                0.7488         estimate D2E/DX2                !
 ! A1    A(2,1,6)              120.9159         estimate D2E/DX2                !
 ! A2    A(2,1,12)             121.3334         estimate D2E/DX2                !
 ! A3    A(6,1,12)             117.7507         estimate D2E/DX2                !
 ! A4    A(1,2,3)              119.9778         estimate D2E/DX2                !
 ! A5    A(1,2,10)             119.7034         estimate D2E/DX2                !
 ! A6    A(3,2,10)             120.3188         estimate D2E/DX2                !
 ! A7    A(2,3,4)              119.9812         estimate D2E/DX2                !
 ! A8    A(2,3,9)              120.3194         estimate D2E/DX2                !
 ! A9    A(4,3,9)              119.6994         estimate D2E/DX2                !
 ! A10   A(3,4,5)              120.9171         estimate D2E/DX2                !
 ! A11   A(3,4,13)             121.3298         estimate D2E/DX2                !
 ! A12   A(5,4,13)             117.7531         estimate D2E/DX2                !
 ! A13   A(4,5,6)              119.0988         estimate D2E/DX2                !
 ! A14   A(4,5,8)              120.6978         estimate D2E/DX2                !
 ! A15   A(6,5,8)              120.2034         estimate D2E/DX2                !
 ! A16   A(1,6,5)              119.1092         estimate D2E/DX2                !
 ! A17   A(1,6,7)              120.6879         estimate D2E/DX2                !
 ! A18   A(5,6,7)              120.2029         estimate D2E/DX2                !
 ! A19   A(5,11,7)              65.1734         estimate D2E/DX2                !
 ! A20   A(5,11,14)            160.8472         estimate D2E/DX2                !
 ! A21   A(5,11,15)            160.8472         estimate D2E/DX2                !
 ! A22   A(6,11,8)              65.173          estimate D2E/DX2                !
 ! A23   A(6,11,14)            160.8443         estimate D2E/DX2                !
 ! A24   A(6,11,15)            160.8443         estimate D2E/DX2                !
 ! A25   A(7,11,8)              97.3009         estimate D2E/DX2                !
 ! A26   A(7,11,14)            130.6119         estimate D2E/DX2                !
 ! A27   A(7,11,15)            130.6119         estimate D2E/DX2                !
 ! A28   A(8,11,14)            130.6156         estimate D2E/DX2                !
 ! A29   A(8,11,15)            130.6156         estimate D2E/DX2                !
 ! A30   L(4,5,11,1,-1)        192.5758         estimate D2E/DX2                !
 ! A31   L(1,6,11,4,-1)        192.5867         estimate D2E/DX2                !
 ! A32   L(4,5,11,1,-2)        180.0            estimate D2E/DX2                !
 ! A33   L(1,6,11,4,-2)        180.0            estimate D2E/DX2                !
 ! D1    D(6,1,2,3)              0.0            estimate D2E/DX2                !
 ! D2    D(6,1,2,10)           180.0            estimate D2E/DX2                !
 ! D3    D(12,1,2,3)           180.0            estimate D2E/DX2                !
 ! D4    D(12,1,2,10)            0.0            estimate D2E/DX2                !
 ! D5    D(2,1,6,5)              0.0            estimate D2E/DX2                !
 ! D6    D(2,1,6,7)            180.0            estimate D2E/DX2                !
 ! D7    D(12,1,6,5)           180.0            estimate D2E/DX2                !
 ! D8    D(12,1,6,7)             0.0            estimate D2E/DX2                !
 ! D9    D(2,1,11,8)             0.0            estimate D2E/DX2                !
 ! D10   D(2,1,11,14)         -154.2123         estimate D2E/DX2                !
 ! D11   D(2,1,11,15)          154.2122         estimate D2E/DX2                !
 ! D12   D(12,1,11,8)          180.0            estimate D2E/DX2                !
 ! D13   D(12,1,11,14)          25.7877         estimate D2E/DX2                !
 ! D14   D(12,1,11,15)         -25.7878         estimate D2E/DX2                !
 ! D15   D(1,2,3,4)              0.0            estimate D2E/DX2                !
 ! D16   D(1,2,3,9)            180.0            estimate D2E/DX2                !
 ! D17   D(10,2,3,4)           180.0            estimate D2E/DX2                !
 ! D18   D(10,2,3,9)             0.0            estimate D2E/DX2                !
 ! D19   D(2,3,4,5)              0.0            estimate D2E/DX2                !
 ! D20   D(2,3,4,13)           180.0            estimate D2E/DX2                !
 ! D21   D(9,3,4,5)            180.0            estimate D2E/DX2                !
 ! D22   D(9,3,4,13)             0.0            estimate D2E/DX2                !
 ! D23   D(3,4,5,6)              0.0            estimate D2E/DX2                !
 ! D24   D(3,4,5,8)            180.0            estimate D2E/DX2                !
 ! D25   D(13,4,5,6)           180.0            estimate D2E/DX2                !
 ! D26   D(13,4,5,8)             0.0            estimate D2E/DX2                !
 ! D27   D(3,4,11,7)             0.0            estimate D2E/DX2                !
 ! D28   D(3,4,11,14)          154.2048         estimate D2E/DX2                !
 ! D29   D(3,4,11,15)         -154.2048         estimate D2E/DX2                !
 ! D30   D(13,4,11,7)          180.0            estimate D2E/DX2                !
 ! D31   D(13,4,11,14)         -25.7952         estimate D2E/DX2                !
 ! D32   D(13,4,11,15)          25.7952         estimate D2E/DX2                !
 ! D33   D(4,5,6,1)              0.0            estimate D2E/DX2                !
 ! D34   D(4,5,6,7)            180.0            estimate D2E/DX2                !
 ! D35   D(8,5,6,1)            180.0            estimate D2E/DX2                !
 ! D36   D(8,5,6,7)              0.0            estimate D2E/DX2                !
 --------------------------------------------------------------------------------
 Trust Radius=3.00D-01 FncErr=1.00D-07 GrdErr=1.00D-07 EigMax=2.50D+02 EigMin=1.00D-04
 Number of steps in this run=     98 maximum allowed number of steps=    100.
 GradGradGradGradGradGradGradGradGradGradGradGradGradGradGradGradGradGrad

                          Input orientation:                          
 ---------------------------------------------------------------------
 Center     Atomic      Atomic             Coordinates (Angstroms)
 Number     Number       Type             X           Y           Z
 ---------------------------------------------------------------------
      1          6           0       -0.024597    1.400067    0.000000
      2          6           0       -1.237492    0.700460    0.000000
      3          6           0       -1.237520   -0.700370    0.000000
      4          6           0       -0.024644   -1.400125    0.000000
      5          6           0        1.200092   -0.718429    0.000000
      6          6           0        1.200046    0.718232    0.000000
      7          8           0        2.383248    1.407002    0.000000
      8          8           0        2.383319   -1.407127    0.000000
      9          1           0       -2.175863   -1.249095    0.000000
     10          1           0       -2.175827    1.249217    0.000000
     11         12           0        3.621578   -0.000011    0.000000
     12          1           0        0.001149    2.487128    0.000000
     13          1           0        0.000927   -2.487210    0.000000
     14          1           0        5.782791    0.000131    0.374375
     15          1           0        5.782791    0.000131   -0.374376
 ---------------------------------------------------------------------
                    Distance matrix (angstroms):
                    1          2          3          4          5
     1  C    0.000000
     2  C    1.400201   0.000000
     3  C    2.425493   1.400830   0.000000
     4  C    2.800192   2.425584   1.400259   0.000000
     5  C    2.447016   2.820472   2.437679   1.401673   0.000000
     6  C    1.401660   2.437603   2.820312   2.446896   1.436661
     7  O    2.407855   3.689032   4.189389   3.698365   2.432553
     8  O    3.698432   4.189534   3.689171   2.407973   1.369062
     9  H    3.412624   2.163632   1.087008   2.156514   3.417408
    10  H    2.156513   1.087017   2.163633   3.412712   3.907488
    11  Mg   3.905741   4.909299   4.909311   3.905797   2.525811
    12  H    1.087366   2.174032   3.419714   3.887339   3.422435
    13  H    3.887361   3.419784   2.174063   1.087386   2.136956
    14  H    5.985460   7.065054   7.065099   5.985581   4.653774
    15  H    5.985460   7.065054   7.065099   5.985581   4.653774
                    6          7          8          9         10
     6  C    0.000000
     7  O    1.369077   0.000000
     8  O    2.432547   2.814129   0.000000
     9  H    3.907318   5.276395   4.561920   0.000000
    10  H    3.417377   4.561805   5.276550   2.498312   0.000000
    11  Mg   2.525805   1.874339   1.874369   5.930475   5.930470
    12  H    2.136901   2.615544   4.565080   4.324204   2.504326
    13  H    3.422389   4.565122   2.615793   2.504265   4.324251
    14  H    4.653749   3.698153   3.698235   8.064794   8.064736
    15  H    4.653749   3.698153   3.698235   8.064794   8.064736
                   11         12         13         14         15
    11  Mg   0.000000
    12  H    4.392421   0.000000
    13  H    4.392638   4.974338   0.000000
    14  H    2.193399   6.304974   6.305313   0.000000
    15  H    2.193399   6.304974   6.305313   0.748751   0.000000
 Symmetry turned off by external request.
 Stoichiometry    C6H6MgO2
 Framework group  CS[SG(C6H4MgO2),X(H2)]
 Deg. of freedom    26
 Full point group                 CS      NOp   2
 Rotational constants (GHZ):           3.3594432           1.1697883           0.8685034
 Counterpoise: doing full-system calculation.
 Standard basis: 6-311+G(d,p) (5D, 7F)
   242 basis functions,   386 primitive gaussians,   251 cartesian basis functions
    35 alpha electrons       35 beta electrons
       nuclear repulsion energy       465.6727728832 Hartrees.
 NAtoms=   15 NActive=   15 NUniq=   15 SFac= 1.00D+00 NAtFMM=   60 NAOKFM=F Big=F
 Integral buffers will be    131072 words long.
 Raffenetti 1 integral format.
 Two-electron integral symmetry is turned off.
 One-electron integrals computed using PRISM.
 NBasis=   242 RedAO= T EigKep=  1.61D-06  NBF=   242
 NBsUse=   242 1.00D-06 EigRej= -1.00D+00 NBFU=   242
 ExpMin= 1.46D-02 ExpMax= 4.39D+04 ExpMxC= 1.51D+03 IAcc=3 IRadAn=         5 AccDes= 0.00D+00
 Harris functional with IExCor=  205 and IRadAn=       5 diagonalized for initial guess.
 HarFok:  IExCor=  205 AccDes= 0.00D+00 IRadAn=         5 IDoV= 1 UseB2=F ITyADJ=14
 ICtDFT=  3500011 ScaDFX=  1.000000  1.000000  1.000000  1.000000
 FoFCou: FMM=F IPFlag=           0 FMFlag=      100000 FMFlg1=           0
         NFxFlg=           0 DoJE=T BraDBF=F KetDBF=T FulRan=T
         wScrn=  0.000000 ICntrl=       500 IOpCl=  0 I1Cent=   200000004 NGrid=           0
         NMat0=    1 NMatS0=      1 NMatT0=    0 NMatD0=    1 NMtDS0=    0 NMtDT0=    0
 Symmetry not used in FoFCou.
 Requested convergence on RMS density matrix=1.00D-08 within 128 cycles.
 Requested convergence on MAX density matrix=1.00D-06.
 Requested convergence on             energy=1.00D-06.
 No special actions if energy rises.
 SCF Done:  E(RHF) =  -580.125403896     A.U. after   16 cycles
            NFock= 16  Conv=0.48D-08     -V/T= 2.0013
 ExpMin= 1.46D-02 ExpMax= 4.39D+04 ExpMxC= 1.51D+03 IAcc=3 IRadAn=         5 AccDes= 0.00D+00
 HarFok:  IExCor=  205 AccDes= 0.00D+00 IRadAn=         5 IDoV=-2 UseB2=F ITyADJ=14
 ICtDFT= 12500011 ScaDFX=  1.000000  1.000000  1.000000  1.000000
 Range of M.O.s used for correlation:    14   242
 NBasis=   242 NAE=    35 NBE=    35 NFC=    13 NFV=     0
 NROrb=    229 NOA=    22 NOB=    22 NVA=   207 NVB=   207

 **** Warning!!: The largest alpha MO coefficient is  0.20242974D+03

 Fully direct method using O(ONN) memory.
 JobTyp=1 Pass  1:  I=  14 to  35 NPSUse= 32 ParTrn=T ParDer=T DoDerP=T.
 Spin components of T(2) and E(2):
     alpha-alpha T2 =       0.6093453266D-01 E2=     -0.1715813074D+00
     alpha-beta  T2 =       0.3140564040D+00 E2=     -0.9350193549D+00
     beta-beta   T2 =       0.6093453266D-01 E2=     -0.1715813074D+00
 ANorm=    0.1198301076D+01
 E2 =    -0.1278181970D+01 EUMP2 =    -0.58140358586610D+03
          IDoAtm=111111111111111
          Differentiating once with respect to electric field.
                with respect to dipole field.
          Differentiating once with respect to nuclear coordinates.
 Keep R1 ints in memory in canonical form, NReq=440287306.
          There are     1 degrees of freedom in the 1st order CPHF.  IDoFFX=0 NUNeed=     1.
 LinEq1:  Iter=  0 NonCon=     1 RMS=4.09D-03 Max=7.45D-02 NDo=     1
 AX will form     1 AO Fock derivatives at one time.
 LinEq1:  Iter=  1 NonCon=     1 RMS=1.01D-03 Max=2.26D-02 NDo=     1
 LinEq1:  Iter=  2 NonCon=     1 RMS=4.29D-04 Max=1.24D-02 NDo=     1
 LinEq1:  Iter=  3 NonCon=     1 RMS=1.39D-04 Max=2.12D-03 NDo=     1
 LinEq1:  Iter=  4 NonCon=     1 RMS=5.60D-05 Max=1.62D-03 NDo=     1
 LinEq1:  Iter=  5 NonCon=     1 RMS=1.41D-05 Max=3.61D-04 NDo=     1
 LinEq1:  Iter=  6 NonCon=     1 RMS=4.06D-06 Max=1.35D-04 NDo=     1
 LinEq1:  Iter=  7 NonCon=     1 RMS=1.97D-06 Max=8.89D-05 NDo=     1
 LinEq1:  Iter=  8 NonCon=     1 RMS=6.50D-07 Max=1.55D-05 NDo=     1
 LinEq1:  Iter=  9 NonCon=     1 RMS=1.91D-07 Max=5.15D-06 NDo=     1
 LinEq1:  Iter= 10 NonCon=     1 RMS=8.13D-08 Max=1.89D-06 NDo=     1
 LinEq1:  Iter= 11 NonCon=     1 RMS=2.12D-08 Max=3.22D-07 NDo=     1
 LinEq1:  Iter= 12 NonCon=     1 RMS=4.13D-09 Max=6.80D-08 NDo=     1
 LinEq1:  Iter= 13 NonCon=     1 RMS=6.23D-10 Max=9.71D-09 NDo=     1
 LinEq1:  Iter= 14 NonCon=     1 RMS=1.39D-10 Max=2.96D-09 NDo=     1
 LinEq1:  Iter= 15 NonCon=     0 RMS=2.99D-11 Max=3.79D-10 NDo=     1
 Linear equations converged to 1.000D-10 1.000D-09 after    15 iterations.
 End of Minotr F.D. properties file   721 does not exist.
 End of Minotr F.D. properties file   722 does not exist.
 End of Minotr F.D. properties file   788 does not exist.

 **********************************************************************

            Population analysis using the SCF Density.

 **********************************************************************

 Alpha  occ. eigenvalues --  -49.08609 -20.50126 -20.50125 -11.25447 -11.25348
 Alpha  occ. eigenvalues --  -11.19688 -11.19576 -11.19313 -11.19309  -3.81834
 Alpha  occ. eigenvalues --   -2.34151  -2.34123  -2.33954  -1.31121  -1.27392
 Alpha  occ. eigenvalues --   -1.08896  -0.96398  -0.93793  -0.78853  -0.76327
 Alpha  occ. eigenvalues --   -0.76105  -0.64880  -0.62838  -0.60590  -0.55913
 Alpha  occ. eigenvalues --   -0.54911  -0.54413  -0.49386  -0.49208  -0.47394
 Alpha  occ. eigenvalues --   -0.44539  -0.42001  -0.41608  -0.28527  -0.24885
 Alpha virt. eigenvalues --    0.00058   0.00236   0.02182   0.02223   0.04729
 Alpha virt. eigenvalues --    0.05670   0.06778   0.09948   0.10347   0.10976
 Alpha virt. eigenvalues --    0.12527   0.13723   0.13949   0.14795   0.16239
 Alpha virt. eigenvalues --    0.16371   0.16693   0.16798   0.18018   0.18435
 Alpha virt. eigenvalues --    0.18796   0.20820   0.20956   0.20984   0.21123
 Alpha virt. eigenvalues --    0.22815   0.24216   0.24719   0.24725   0.25638
 Alpha virt. eigenvalues --    0.26065   0.26906   0.29115   0.29772   0.30939
 Alpha virt. eigenvalues --    0.31320   0.32217   0.32662   0.34210   0.36921
 Alpha virt. eigenvalues --    0.37281   0.37462   0.37758   0.38748   0.38985
 Alpha virt. eigenvalues --    0.40342   0.42104   0.44303   0.44524   0.46105
 Alpha virt. eigenvalues --    0.47782   0.47851   0.48364   0.50831   0.54029
 Alpha virt. eigenvalues --    0.54211   0.54721   0.55038   0.58300   0.58373
 Alpha virt. eigenvalues --    0.59201   0.62741   0.65754   0.66223   0.71689
 Alpha virt. eigenvalues --    0.74372   0.75297   0.75936   0.76521   0.76766
 Alpha virt. eigenvalues --    0.79124   0.80151   0.81355   0.82078   0.83523
 Alpha virt. eigenvalues --    0.85565   0.87009   0.88074   0.89832   0.92250
 Alpha virt. eigenvalues --    0.93354   0.95578   0.96964   0.97693   1.01951
 Alpha virt. eigenvalues --    1.03254   1.04245   1.06032   1.10519   1.11897
 Alpha virt. eigenvalues --    1.13841   1.16656   1.17186   1.21589   1.22450
 Alpha virt. eigenvalues --    1.26258   1.27474   1.29131   1.29344   1.32618
 Alpha virt. eigenvalues --    1.37604   1.39000   1.41392   1.41827   1.43383
 Alpha virt. eigenvalues --    1.50681   1.53389   1.53746   1.55530   1.56331
 Alpha virt. eigenvalues --    1.65433   1.70344   1.70937   1.75777   1.80205
 Alpha virt. eigenvalues --    1.83588   1.84390   1.86690   1.88644   1.92907
 Alpha virt. eigenvalues --    1.94770   1.95242   1.96758   1.99836   2.02234
 Alpha virt. eigenvalues --    2.04476   2.05406   2.10040   2.12814   2.14928
 Alpha virt. eigenvalues --    2.17343   2.18172   2.20835   2.23349   2.26978
 Alpha virt. eigenvalues --    2.28794   2.29300   2.30020   2.37007   2.37099
 Alpha virt. eigenvalues --    2.38289   2.49863   2.56506   2.58408   2.65662
 Alpha virt. eigenvalues --    2.66315   2.79198   2.80643   2.80813   2.90600
 Alpha virt. eigenvalues --    2.94488   3.02994   3.05513   3.06002   3.08280
 Alpha virt. eigenvalues --    3.10003   3.11715   3.17978   3.18162   3.18630
 Alpha virt. eigenvalues --    3.23321   3.29888   3.30077   3.34135   3.35395
 Alpha virt. eigenvalues --    3.43324   3.46461   3.49527   3.50878   3.51144
 Alpha virt. eigenvalues --    3.58620   3.61275   3.61287   3.66232   3.70459
 Alpha virt. eigenvalues --    3.82002   3.84338   3.88092   3.93785   3.96605
 Alpha virt. eigenvalues --    3.99436   4.07928   4.17268   4.47770   4.49877
 Alpha virt. eigenvalues --    4.60644   4.68788   4.68827   5.29550   5.63695
 Alpha virt. eigenvalues --    5.68235   5.77826   5.90197   6.20960   6.36116
 Alpha virt. eigenvalues --    6.40480   6.64097   6.71418  24.77920  25.06730
 Alpha virt. eigenvalues --   25.11773  25.21787  25.27577  25.36852  51.70658
 Alpha virt. eigenvalues --   51.77438 105.79141
          Condensed to atoms (all electrons):
               1          2          3          4          5          6
     1  C   22.075826  -0.533484   1.287768  -7.604981 -10.026848   1.685629
     2  C   -0.533484   5.672926   0.304158   1.288107  -0.705568  -0.247350
     3  C    1.287768   0.304158   5.672836  -0.531158  -0.247559  -0.706929
     4  C   -7.604981   1.288107  -0.531158  22.069939   1.687131 -10.025556
     5  C  -10.026848  -0.705568  -0.247559   1.687131  21.455834  -7.151436
     6  C    1.685629  -0.247350  -0.706929 -10.025556  -7.151436  21.456323
     7  O   -1.093296   0.040838  -0.034604   0.267141   0.443332   0.342288
     8  O    0.267100  -0.034598   0.040737  -1.092995   0.342117   0.443333
     9  H   -0.031557   0.007138   0.395555  -0.032939   0.006743   0.020996
    10  H   -0.032970   0.395574   0.007116  -0.031526   0.020971   0.006772
    11  Mg   0.078515  -0.008326  -0.008320   0.078466  -0.146253  -0.145995
    12  H    0.322040  -0.010495  -0.004802  -0.004468   0.024275   0.043998
    13  H   -0.004488  -0.004797  -0.010525   0.322086   0.043975   0.024284
    14  H    0.000316   0.000188   0.000187   0.000315  -0.002213  -0.002204
    15  H    0.000316   0.000188   0.000187   0.000315  -0.002213  -0.002204
               7          8          9         10         11         12
     1  C   -1.093296   0.267100  -0.031557  -0.032970   0.078515   0.322040
     2  C    0.040838  -0.034598   0.007138   0.395574  -0.008326  -0.010495
     3  C   -0.034604   0.040737   0.395555   0.007116  -0.008320  -0.004802
     4  C    0.267141  -1.092995  -0.032939  -0.031526   0.078466  -0.004468
     5  C    0.443332   0.342117   0.006743   0.020971  -0.146253   0.024275
     6  C    0.342288   0.443333   0.020996   0.006772  -0.145995   0.043998
     7  O    8.339501   0.007252   0.000090  -0.000324   0.215754  -0.003930
     8  O    0.007252   8.339532  -0.000324   0.000090   0.215770  -0.000254
     9  H    0.000090  -0.000324   0.523423  -0.005076   0.000503  -0.000147
    10  H   -0.000324   0.000090  -0.005076   0.523422   0.000503  -0.005002
    11  Mg   0.215754   0.215770   0.000503   0.000503  10.591693   0.001947
    12  H   -0.003930  -0.000254  -0.000147  -0.005002   0.001947   0.510594
    13  H   -0.000254  -0.003925  -0.005003  -0.000147   0.001947   0.000019
    14  H    0.002907   0.002906  -0.000000  -0.000000   0.042696   0.000000
    15  H    0.002907   0.002906  -0.000000  -0.000000   0.042696   0.000000
              13         14         15
     1  C   -0.004488   0.000316   0.000316
     2  C   -0.004797   0.000188   0.000188
     3  C   -0.010525   0.000187   0.000187
     4  C    0.322086   0.000315   0.000315
     5  C    0.043975  -0.002213  -0.002213
     6  C    0.024284  -0.002204  -0.002204
     7  O   -0.000254   0.002907   0.002907
     8  O   -0.003925   0.002906   0.002906
     9  H   -0.005003  -0.000000  -0.000000
    10  H   -0.000147  -0.000000  -0.000000
    11  Mg   0.001947   0.042696   0.042696
    12  H    0.000019   0.000000   0.000000
    13  H    0.510598   0.000000   0.000000
    14  H    0.000000   0.526297   0.368432
    15  H    0.000000   0.368432   0.526297
 Mulliken charges:
               1
     1  C   -0.389885
     2  C   -0.164498
     3  C   -0.164649
     4  C   -0.389876
     5  C    0.257711
     6  C    0.258052
     7  O   -0.529602
     8  O   -0.529648
     9  H    0.120596
    10  H    0.120596
    11  Mg   1.038404
    12  H    0.126223
    13  H    0.126227
    14  H    0.060174
    15  H    0.060174
 Sum of Mulliken charges =  -0.00000
 Mulliken charges with hydrogens summed into heavy atoms:
               1
     1  C   -0.263662
     2  C   -0.043902
     3  C   -0.044053
     4  C   -0.263649
     5  C    0.257711
     6  C    0.258052
     7  O   -0.529602
     8  O   -0.529648
    11  Mg   1.158753
         Mulliken charges condensed to fragments:
      1     -0.120349
      2      0.120349
 Electronic spatial extent (au):  <R**2>=           1669.3649
 Charge=             -0.0000 electrons
 Dipole moment (field-independent basis, Debye):
    X=              9.8911    Y=              0.0003    Z=             -0.0000  Tot=              9.8911
 Quadrupole moment (field-independent basis, Debye-Ang):
   XX=              8.3631   YY=            -65.9626   ZZ=            -58.3036
   XY=              0.0010   XZ=             -0.0000   YZ=             -0.0000
 Traceless Quadrupole moment (field-independent basis, Debye-Ang):
   XX=             46.9975   YY=            -27.3283   ZZ=            -19.6692
   XY=              0.0010   XZ=             -0.0000   YZ=             -0.0000
 Octapole moment (field-independent basis, Debye-Ang**2):
  XXX=            162.1655  YYY=              0.0073  ZZZ=              0.0000  XYY=            -92.5495
  XXY=              0.0068  XXZ=             -0.0000  XZZ=            -46.4884  YZZ=              0.0019
  YYZ=              0.0000  XYZ=             -0.0000
 Hexadecapole moment (field-independent basis, Debye-Ang**3):
 XXXX=            196.1877 YYYY=           -472.2109 ZZZZ=            -70.4233 XXXY=              0.0307
 XXXZ=             -0.0001 YYYX=              0.0158 YYYZ=              0.0000 ZZZX=              0.0000
 ZZZY=              0.0000 XXYY=           -411.2655 XXZZ=           -232.1516 YYZZ=            -98.0648
 XXYZ=             -0.0000 YYXZ=              0.0000 ZZXY=              0.0027
 N-N= 4.656727728832D+02 E-N=-2.305142038404D+03  KE= 5.793772829627D+02
 Calling FoFJK, ICntrl=  10002127 FMM=F ISym2X=0 I1Cent= 0 IOpClX= 0 NMat=1 NMatS=1 NMatT=0.
 Cartesian Forces:  Max     0.000457306 RMS     0.000131826
 CPIOFr:  IOpCl= 0 IRwI=-1 IRwCP=  731 ICalc= -1 LCPTot=       91764 Len1MO=      239696 IndFrg=       91764
 CPIOFr:  IOpCl= 0 IRwI=-1 IRwCP=  731 ICalc=  0 LCPTot=       91764 Len1MO=      239696 IndFrg=      331460
 Counterpoise: doing calculation for fragment   1 using the basis set of the full-system, NewBq=T
 Basis read from rwf:  (5D, 7F)
   242 basis functions,   386 primitive gaussians,   251 cartesian basis functions
    34 alpha electrons       34 beta electrons
       nuclear repulsion energy       447.3502633123 Hartrees.
 NAtoms=   15 NActive=   15 NUniq=   15 SFac= 1.00D+00 NAtFMM=   60 NAOKFM=F Big=F
 Integral buffers will be    131072 words long.
 Raffenetti 1 integral format.
 Two-electron integral symmetry is turned off.
 One-electron integrals computed using PRISM.
 NBasis=   242 RedAO= T EigKep=  1.61D-06  NBF=   242
 NBsUse=   242 1.00D-06 EigRej= -1.00D+00 NBFU=   242
 ExpMin= 1.46D-02 ExpMax= 4.39D+04 ExpMxC= 1.51D+03 IAcc=3 IRadAn=         5 AccDes= 0.00D+00
 Harris functional with IExCor=  205 and IRadAn=       5 diagonalized for initial guess.
 HarFok:  IExCor=  205 AccDes= 0.00D+00 IRadAn=         5 IDoV= 1 UseB2=F ITyADJ=14
 ICtDFT=  3500011 ScaDFX=  1.000000  1.000000  1.000000  1.000000
 FoFCou: FMM=F IPFlag=           0 FMFlag=      100000 FMFlg1=           0
         NFxFlg=           0 DoJE=T BraDBF=F KetDBF=T FulRan=T
         wScrn=  0.000000 ICntrl=       500 IOpCl=  0 I1Cent=   200000004 NGrid=           0
         NMat0=    1 NMatS0=      1 NMatT0=    0 NMatD0=    1 NMtDS0=    0 NMtDT0=    0
 Symmetry not used in FoFCou.
 Requested convergence on RMS density matrix=1.00D-08 within 128 cycles.
 Requested convergence on MAX density matrix=1.00D-06.
 Requested convergence on             energy=1.00D-06.
 No special actions if energy rises.
 SCF Done:  E(RHF) =  -578.984515953     A.U. after   15 cycles
            NFock= 15  Conv=0.84D-08     -V/T= 2.0013
 ExpMin= 1.46D-02 ExpMax= 4.39D+04 ExpMxC= 1.51D+03 IAcc=3 IRadAn=         5 AccDes= 0.00D+00
 HarFok:  IExCor=  205 AccDes= 0.00D+00 IRadAn=         5 IDoV=-2 UseB2=F ITyADJ=14
 ICtDFT= 12500011 ScaDFX=  1.000000  1.000000  1.000000  1.000000
 Range of M.O.s used for correlation:    14   242
 NBasis=   242 NAE=    34 NBE=    34 NFC=    13 NFV=     0
 NROrb=    229 NOA=    21 NOB=    21 NVA=   208 NVB=   208

 **** Warning!!: The largest alpha MO coefficient is  0.20165871D+03

 Fully direct method using O(ONN) memory.
 JobTyp=1 Pass  1:  I=  14 to  34 NPSUse= 32 ParTrn=T ParDer=T DoDerP=T.
 Spin components of T(2) and E(2):
     alpha-alpha T2 =       0.6098657236D-01 E2=     -0.1715371575D+00
     alpha-beta  T2 =       0.3050129085D+00 E2=     -0.9070035117D+00
     beta-beta   T2 =       0.6098657236D-01 E2=     -0.1715371575D+00
 ANorm=    0.1194565215D+01
 E2 =    -0.1250077827D+01 EUMP2 =    -0.58023459377949D+03
          IDoAtm=111111111111111
          Differentiating once with respect to electric field.
                with respect to dipole field.
          Differentiating once with respect to nuclear coordinates.
 Keep R1 ints in memory in canonical form, NReq=440287306.
          There are     1 degrees of freedom in the 1st order CPHF.  IDoFFX=0 NUNeed=     1.
 LinEq1:  Iter=  0 NonCon=     1 RMS=4.20D-03 Max=8.72D-02 NDo=     1
 AX will form     1 AO Fock derivatives at one time.
 LinEq1:  Iter=  1 NonCon=     1 RMS=1.03D-03 Max=1.78D-02 NDo=     1
 LinEq1:  Iter=  2 NonCon=     1 RMS=4.31D-04 Max=9.25D-03 NDo=     1
 LinEq1:  Iter=  3 NonCon=     1 RMS=1.37D-04 Max=2.01D-03 NDo=     1
 LinEq1:  Iter=  4 NonCon=     1 RMS=5.18D-05 Max=1.29D-03 NDo=     1
 LinEq1:  Iter=  5 NonCon=     1 RMS=1.30D-05 Max=4.05D-04 NDo=     1
 LinEq1:  Iter=  6 NonCon=     1 RMS=4.18D-06 Max=1.64D-04 NDo=     1
 LinEq1:  Iter=  7 NonCon=     1 RMS=2.14D-06 Max=9.30D-05 NDo=     1
 LinEq1:  Iter=  8 NonCon=     1 RMS=6.49D-07 Max=1.21D-05 NDo=     1
 LinEq1:  Iter=  9 NonCon=     1 RMS=1.74D-07 Max=3.78D-06 NDo=     1
 LinEq1:  Iter= 10 NonCon=     1 RMS=7.20D-08 Max=1.40D-06 NDo=     1
 LinEq1:  Iter= 11 NonCon=     1 RMS=2.06D-08 Max=3.66D-07 NDo=     1
 LinEq1:  Iter= 12 NonCon=     1 RMS=4.40D-09 Max=6.30D-08 NDo=     1
 LinEq1:  Iter= 13 NonCon=     1 RMS=6.75D-10 Max=1.14D-08 NDo=     1
 LinEq1:  Iter= 14 NonCon=     1 RMS=1.55D-10 Max=3.19D-09 NDo=     1
 LinEq1:  Iter= 15 NonCon=     0 RMS=3.85D-11 Max=6.67D-10 NDo=     1
 Linear equations converged to 1.000D-10 1.000D-09 after    15 iterations.
 End of Minotr F.D. properties file   721 does not exist.
 End of Minotr F.D. properties file   722 does not exist.
 End of Minotr F.D. properties file   788 does not exist.

 **********************************************************************

            Population analysis using the SCF Density.

 **********************************************************************

 Alpha  occ. eigenvalues --  -49.10375 -20.50781 -20.50780 -11.25874 -11.25775
 Alpha  occ. eigenvalues --  -11.20021 -11.19909 -11.19683 -11.19678  -3.83487
 Alpha  occ. eigenvalues --   -2.35767  -2.35743  -2.35582  -1.31693  -1.27978
 Alpha  occ. eigenvalues --   -1.09260  -0.96761  -0.94182  -0.79243  -0.76711
 Alpha  occ. eigenvalues --   -0.65305  -0.63264  -0.61045  -0.56391  -0.55285
 Alpha  occ. eigenvalues --   -0.54937  -0.49814  -0.49606  -0.47995  -0.44981
 Alpha  occ. eigenvalues --   -0.42401  -0.42094  -0.28890  -0.25335
 Alpha virt. eigenvalues --   -0.05751   0.01597   0.01863   0.02381   0.04380
 Alpha virt. eigenvalues --    0.06315   0.07329   0.08741   0.10383   0.10841
 Alpha virt. eigenvalues --    0.12304   0.13563   0.14460   0.15699   0.15964
 Alpha virt. eigenvalues --    0.16065   0.16732   0.17078   0.17603   0.17790
 Alpha virt. eigenvalues --    0.18344   0.20819   0.20889   0.20905   0.21483
 Alpha virt. eigenvalues --    0.22639   0.23489   0.24132   0.24479   0.25814
 Alpha virt. eigenvalues --    0.25840   0.26498   0.26902   0.28935   0.29796
 Alpha virt. eigenvalues --    0.30802   0.31108   0.32265   0.32467   0.34000
 Alpha virt. eigenvalues --    0.36734   0.36878   0.37434   0.38655   0.38755
 Alpha virt. eigenvalues --    0.39459   0.42246   0.43910   0.44723   0.45130
 Alpha virt. eigenvalues --    0.47159   0.47553   0.49687   0.50513   0.53166
 Alpha virt. eigenvalues --    0.53644   0.54356   0.55119   0.57686   0.58227
 Alpha virt. eigenvalues --    0.58523   0.65125   0.65391   0.70868   0.73467
 Alpha virt. eigenvalues --    0.74053   0.74685   0.76200   0.76239   0.78441
 Alpha virt. eigenvalues --    0.78696   0.79842   0.81581   0.82480   0.83167
 Alpha virt. eigenvalues --    0.86683   0.87517   0.87583   0.88827   0.90469
 Alpha virt. eigenvalues --    0.92407   0.93016   0.95268   0.96673   0.97565
 Alpha virt. eigenvalues --    1.01723   1.02927   1.04018   1.05716   1.10488
 Alpha virt. eigenvalues --    1.11576   1.13549   1.16285   1.16859   1.22073
 Alpha virt. eigenvalues --    1.22711   1.25947   1.27121   1.28836   1.29184
 Alpha virt. eigenvalues --    1.37263   1.38585   1.41079   1.41367   1.46427
 Alpha virt. eigenvalues --    1.49193   1.52611   1.52966   1.55137   1.56773
 Alpha virt. eigenvalues --    1.62770   1.69852   1.74406   1.76330   1.83266
 Alpha virt. eigenvalues --    1.83809   1.86380   1.88307   1.91486   1.94936
 Alpha virt. eigenvalues --    1.95181   1.97885   1.99426   2.04208   2.05124
 Alpha virt. eigenvalues --    2.09714   2.12142   2.17177   2.17817   2.20462
 Alpha virt. eigenvalues --    2.22681   2.23817   2.24240   2.26128   2.28502
 Alpha virt. eigenvalues --    2.28930   2.29685   2.31066   2.36731   2.36980
 Alpha virt. eigenvalues --    2.37970   2.49457   2.56122   2.58075   2.65295
 Alpha virt. eigenvalues --    2.66294   2.70543   2.78948   2.80468   2.90012
 Alpha virt. eigenvalues --    2.94146   3.02699   3.05201   3.05620   3.07865
 Alpha virt. eigenvalues --    3.09678   3.11359   3.17629   3.17824   3.18228
 Alpha virt. eigenvalues --    3.22956   3.29551   3.29719   3.33559   3.34951
 Alpha virt. eigenvalues --    3.41973   3.45906   3.50318   3.50787   3.58173
 Alpha virt. eigenvalues --    3.60721   3.60862   3.65676   3.69337   3.81106
 Alpha virt. eigenvalues --    3.83974   3.85501   3.87541   3.95793   3.99040
 Alpha virt. eigenvalues --    4.07536   4.15442   4.21282   4.47441   4.49574
 Alpha virt. eigenvalues --    4.60285   4.68301   4.68646   4.87052   5.29179
 Alpha virt. eigenvalues --    5.63096   5.67633   5.77250   5.89567   6.20380
 Alpha virt. eigenvalues --    6.35519   6.38969   6.62587   6.70190  24.77536
 Alpha virt. eigenvalues --   25.06323  25.11397  25.21420  25.27211  25.36499
 Alpha virt. eigenvalues --   51.70005  51.76786 105.77402
          Condensed to atoms (all electrons):
               1          2          3          4          5          6
     1  C   21.873177  -0.481204   1.269119  -7.545357 -10.035173   1.801682
     2  C   -0.481204   5.644262   0.303965   1.269439  -0.697593  -0.259387
     3  C    1.269119   0.303965   5.644245  -0.478956  -0.259568  -0.699000
     4  C   -7.545357   1.269439  -0.478956  21.867353   1.803198 -10.033862
     5  C  -10.035173  -0.697593  -0.259568   1.803198  21.422315  -7.226191
     6  C    1.801682  -0.259387  -0.699000 -10.033862  -7.226191  21.422903
     7  O   -1.097198   0.040392  -0.035170   0.269129   0.458566   0.331853
     8  O    0.269093  -0.035168   0.040293  -1.096907   0.331702   0.458555
     9  H   -0.031234   0.007053   0.396016  -0.033878   0.007348   0.020915
    10  H   -0.033910   0.396036   0.007031  -0.031203   0.020890   0.007377
    11  Mg   0.082707  -0.010270  -0.010263   0.082677  -0.146879  -0.146634
    12  H    0.322350  -0.009509  -0.004655  -0.004452   0.024387   0.042399
    13  H   -0.004472  -0.004650  -0.009539   0.322396   0.042376   0.024397
    14  H    0.000021   0.000009   0.000009   0.000021  -0.000191  -0.000192
    15  H    0.000021   0.000009   0.000009   0.000021  -0.000191  -0.000192
               7          8          9         10         11         12
     1  C   -1.097198   0.269093  -0.031234  -0.033910   0.082707   0.322350
     2  C    0.040392  -0.035168   0.007053   0.396036  -0.010270  -0.009509
     3  C   -0.035170   0.040293   0.396016   0.007031  -0.010263  -0.004655
     4  C    0.269129  -1.096907  -0.033878  -0.031203   0.082677  -0.004452
     5  C    0.458566   0.331702   0.007348   0.020890  -0.146879   0.024387
     6  C    0.331853   0.458555   0.020915   0.007377  -0.146634   0.042399
     7  O    8.331437   0.004144   0.000091  -0.000335   0.212899  -0.003825
     8  O    0.004144   8.331467  -0.000334   0.000091   0.212917  -0.000223
     9  H    0.000091  -0.000334   0.521767  -0.005050   0.000487  -0.000146
    10  H   -0.000335   0.000091  -0.005050   0.521766   0.000487  -0.004962
    11  Mg   0.212899   0.212917   0.000487   0.000487  10.599985   0.001972
    12  H   -0.003825  -0.000223  -0.000146  -0.004962   0.001972   0.509137
    13  H   -0.000223  -0.003820  -0.004963  -0.000146   0.001972   0.000019
    14  H   -0.000003  -0.000003   0.000000   0.000000  -0.000567   0.000000
    15  H   -0.000003  -0.000003   0.000000   0.000000  -0.000567   0.000000
              13         14         15
     1  C   -0.004472   0.000021   0.000021
     2  C   -0.004650   0.000009   0.000009
     3  C   -0.009539   0.000009   0.000009
     4  C    0.322396   0.000021   0.000021
     5  C    0.042376  -0.000191  -0.000191
     6  C    0.024397  -0.000192  -0.000192
     7  O   -0.000223  -0.000003  -0.000003
     8  O   -0.003820  -0.000003  -0.000003
     9  H   -0.004963   0.000000   0.000000
    10  H   -0.000146   0.000000   0.000000
    11  Mg   0.001972  -0.000567  -0.000567
    12  H    0.000019   0.000000   0.000000
    13  H    0.509141   0.000000   0.000000
    14  H    0.000000   0.000212  -0.000009
    15  H    0.000000  -0.000009   0.000212
 Mulliken charges:
               1
     1  C   -0.389623
     2  C   -0.163385
     3  C   -0.163536
     4  C   -0.389619
     5  C    0.255003
     6  C    0.255377
     7  O   -0.511754
     8  O   -0.511803
     9  H    0.121929
    10  H    0.121929
    11  Mg   1.119077
    12  H    0.127509
    13  H    0.127513
    14  H    0.000691
    15  H    0.000691
 Sum of Mulliken charges =  -0.00000
 Mulliken charges with hydrogens summed into heavy atoms:
               1
     1  C   -0.262114
     2  C   -0.041456
     3  C   -0.041608
     4  C   -0.262106
     5  C    0.255003
     6  C    0.255377
     7  O   -0.511754
     8  O   -0.511803
    11  Mg   1.120459
         Mulliken charges condensed to fragments:
      1     -0.001382
      2      0.001382
 Electronic spatial extent (au):  <R**2>=           1431.5792
 Charge=             -0.0000 electrons
 Dipole moment (field-independent basis, Debye):
    X=              8.9528    Y=              0.0003    Z=             -0.0000  Tot=              8.9528
 Quadrupole moment (field-independent basis, Debye-Ang):
   XX=              2.0198   YY=            -63.7477   ZZ=            -56.9364
   XY=              0.0006   XZ=             -0.0000   YZ=              0.0000
 Traceless Quadrupole moment (field-independent basis, Debye-Ang):
   XX=             41.5746   YY=            -24.1930   ZZ=            -17.3816
   XY=              0.0006   XZ=             -0.0000   YZ=              0.0000
 Octapole moment (field-independent basis, Debye-Ang**2):
  XXX=            129.3186  YYY=              0.0080  ZZZ=              0.0000  XYY=            -81.3799
  XXY=              0.0045  XXZ=             -0.0000  XZZ=            -39.1969  YZZ=              0.0021
  YYZ=              0.0000  XYZ=             -0.0000
 Hexadecapole moment (field-independent basis, Debye-Ang**3):
 XXXX=            103.1471 YYYY=           -468.5300 ZZZZ=            -67.6605 XXXY=              0.0181
 XXXZ=             -0.0000 YYYX=              0.0198 YYYZ=             -0.0000 ZZZX=              0.0000
 ZZZY=             -0.0000 XXYY=           -347.2633 XXZZ=           -190.0833 YYZZ=            -97.0735
 XXYZ=             -0.0000 YYXZ=              0.0000 ZZXY=              0.0036
 N-N= 4.473502633123D+02 E-N=-2.266167223383D+03  KE= 5.782301657598D+02
 Calling FoFJK, ICntrl=  10002127 FMM=F ISym2X=0 I1Cent= 0 IOpClX= 0 NMat=1 NMatS=1 NMatT=0.
 Cartesian Forces:  Max     0.002122732 RMS     0.000786466
 CPIOFr:  IOpCl= 0 IRwI=-1 IRwCP=  731 ICalc=  1 LCPTot=       91764 Len1MO=      239696 IndFrg=      571156
 Counterpoise: doing calculation for fragment   2 using the basis set of the full-system, NewBq=T
 Basis read from rwf:  (5D, 7F)
   242 basis functions,   386 primitive gaussians,   251 cartesian basis functions
     1 alpha electrons        1 beta electrons
       nuclear repulsion energy         0.7067465832 Hartrees.
 NAtoms=   15 NActive=   15 NUniq=   15 SFac= 1.00D+00 NAtFMM=   60 NAOKFM=F Big=F
 Integral buffers will be    131072 words long.
 Raffenetti 1 integral format.
 Two-electron integral symmetry is turned off.
 One-electron integrals computed using PRISM.
 NBasis=   242 RedAO= T EigKep=  1.61D-06  NBF=   242
 NBsUse=   242 1.00D-06 EigRej= -1.00D+00 NBFU=   242
 ExpMin= 1.46D-02 ExpMax= 4.39D+04 ExpMxC= 1.51D+03 IAcc=3 IRadAn=         5 AccDes= 0.00D+00
 Harris functional with IExCor=  205 and IRadAn=       5 diagonalized for initial guess.
 HarFok:  IExCor=  205 AccDes= 0.00D+00 IRadAn=         5 IDoV= 1 UseB2=F ITyADJ=14
 ICtDFT=  3500011 ScaDFX=  1.000000  1.000000  1.000000  1.000000
 FoFCou: FMM=F IPFlag=           0 FMFlag=      100000 FMFlg1=           0
         NFxFlg=           0 DoJE=T BraDBF=F KetDBF=T FulRan=T
         wScrn=  0.000000 ICntrl=       500 IOpCl=  0 I1Cent=   200000004 NGrid=           0
         NMat0=    1 NMatS0=      1 NMatT0=    0 NMatD0=    1 NMtDS0=    0 NMtDT0=    0
 Symmetry not used in FoFCou.
 Requested convergence on RMS density matrix=1.00D-08 within 128 cycles.
 Requested convergence on MAX density matrix=1.00D-06.
 Requested convergence on             energy=1.00D-06.
 No special actions if energy rises.
 SCF Done:  E(RHF) =  -1.13242882065     A.U. after    7 cycles
            NFock=  7  Conv=0.95D-09     -V/T= 2.0160
 Range of M.O.s used for correlation:     1   242
 NBasis=   242 NAE=     1 NBE=     1 NFC=     0 NFV=     0
 NROrb=    242 NOA=     1 NOB=     1 NVA=   241 NVB=   241

 **** Warning!!: The largest alpha MO coefficient is  0.17511310D+03

 Fully direct method using O(ONN) memory.
 JobTyp=1 Pass  1:  I=   1 to   1 NPSUse= 32 ParTrn=T ParDer=T DoDerP=T.
 Spin components of T(2) and E(2):
     alpha-alpha T2 =       0.0000000000D+00 E2=      0.0000000000D+00
     alpha-beta  T2 =       0.9577777415D-02 E2=     -0.2836430338D-01
     beta-beta   T2 =       0.0000000000D+00 E2=      0.0000000000D+00
 ANorm=    0.1004777477D+01
 E2 =    -0.2836430338D-01 EUMP2 =    -0.11607931240227D+01
          IDoAtm=111111111111111
          Differentiating once with respect to electric field.
                with respect to dipole field.
          Differentiating once with respect to nuclear coordinates.
 Keep R1 ints in memory in canonical form, NReq=440287319.
          There are     1 degrees of freedom in the 1st order CPHF.  IDoFFX=0 NUNeed=     1.
 LinEq1:  Iter=  0 NonCon=     1 RMS=1.04D-03 Max=8.08D-03 NDo=     1
 AX will form     1 AO Fock derivatives at one time.
 LinEq1:  Iter=  1 NonCon=     1 RMS=4.73D-05 Max=4.91D-04 NDo=     1
 LinEq1:  Iter=  2 NonCon=     1 RMS=2.94D-06 Max=2.29D-05 NDo=     1
 LinEq1:  Iter=  3 NonCon=     1 RMS=1.28D-07 Max=9.76D-07 NDo=     1
 LinEq1:  Iter=  4 NonCon=     1 RMS=5.62D-09 Max=4.41D-08 NDo=     1
 LinEq1:  Iter=  5 NonCon=     1 RMS=4.38D-10 Max=2.27D-09 NDo=     1
 LinEq1:  Iter=  6 NonCon=     0 RMS=3.52D-11 Max=1.47D-10 NDo=     1
 Linear equations converged to 1.000D-10 1.000D-09 after     6 iterations.
 End of Minotr F.D. properties file   721 does not exist.
 End of Minotr F.D. properties file   722 does not exist.
 End of Minotr F.D. properties file   788 does not exist.

 **********************************************************************

            Population analysis using the SCF Density.

 **********************************************************************

 Alpha  occ. eigenvalues --   -0.59198
 Alpha virt. eigenvalues --    0.01991   0.02949   0.02982   0.03207   0.06145
 Alpha virt. eigenvalues --    0.07202   0.08011   0.09822   0.09966   0.10007
 Alpha virt. eigenvalues --    0.10742   0.11543   0.12191   0.12957   0.14562
 Alpha virt. eigenvalues --    0.14718   0.15150   0.16264   0.17021   0.18441
 Alpha virt. eigenvalues --    0.18648   0.18987   0.20472   0.21473   0.22135
 Alpha virt. eigenvalues --    0.23277   0.23948   0.24038   0.24910   0.25651
 Alpha virt. eigenvalues --    0.25653   0.26291   0.27240   0.27435   0.29931
 Alpha virt. eigenvalues --    0.30009   0.31035   0.31209   0.31601   0.34956
 Alpha virt. eigenvalues --    0.35494   0.36650   0.36997   0.38226   0.38984
 Alpha virt. eigenvalues --    0.39193   0.43487   0.44110   0.44148   0.47025
 Alpha virt. eigenvalues --    0.47049   0.47225   0.49098   0.49535   0.49682
 Alpha virt. eigenvalues --    0.53210   0.55685   0.57487   0.58577   0.59713
 Alpha virt. eigenvalues --    0.61932   0.62967   0.66634   0.67905   0.70913
 Alpha virt. eigenvalues --    0.71836   0.73805   0.75327   0.75740   0.78329
 Alpha virt. eigenvalues --    0.78903   0.79222   0.81358   0.84131   0.90157
 Alpha virt. eigenvalues --    0.90838   0.91882   0.94938   0.95959   0.98201
 Alpha virt. eigenvalues --    0.99705   1.00064   1.01468   1.02063   1.10015
 Alpha virt. eigenvalues --    1.11070   1.12842   1.15654   1.17685   1.18109
 Alpha virt. eigenvalues --    1.21686   1.22397   1.27732   1.30516   1.35862
 Alpha virt. eigenvalues --    1.37223   1.41878   1.42360   1.49337   1.51923
 Alpha virt. eigenvalues --    1.51994   1.53467   1.55528   1.56386   1.57513
 Alpha virt. eigenvalues --    1.69891   1.70739   1.71274   1.72247   1.72838
 Alpha virt. eigenvalues --    1.76531   1.76696   1.80449   1.80874   1.83754
 Alpha virt. eigenvalues --    1.86912   1.89787   1.92760   1.94608   1.98097
 Alpha virt. eigenvalues --    1.99993   2.02355   2.06320   2.08096   2.08277
 Alpha virt. eigenvalues --    2.09926   2.12084   2.19031   2.19264   2.30004
 Alpha virt. eigenvalues --    2.30595   2.31686   2.32320   2.37160   2.38454
 Alpha virt. eigenvalues --    2.39652   2.41488   2.47813   2.51801   2.54407
 Alpha virt. eigenvalues --    2.57367   2.57441   2.58316   2.71361   2.73320
 Alpha virt. eigenvalues --    2.79046   2.82634   2.83862   2.87405   2.93467
 Alpha virt. eigenvalues --    2.94151   2.96885   2.99628   3.00041   3.08798
 Alpha virt. eigenvalues --    3.10196   3.11306   3.13308   3.23904   3.30004
 Alpha virt. eigenvalues --    3.30380   3.32491   3.33126   3.35610   3.37144
 Alpha virt. eigenvalues --    3.46793   3.48298   3.49018   3.52893   3.54779
 Alpha virt. eigenvalues --    3.56874   3.64763   3.72881   3.78865   3.94880
 Alpha virt. eigenvalues --    4.02344   4.20273   4.24119   4.36858   4.41095
 Alpha virt. eigenvalues --    4.60888   4.61066   4.63672   4.63851   4.82518
 Alpha virt. eigenvalues --    4.85283   4.87031   4.90864   4.91822   4.93365
 Alpha virt. eigenvalues --    5.06598   5.33141   5.36193   5.62551   5.87006
 Alpha virt. eigenvalues --    7.02123   7.04062   7.09962   7.12656   7.21617
 Alpha virt. eigenvalues --    7.22693   7.35793   7.71641   7.73364   7.73744
 Alpha virt. eigenvalues --    7.73879   7.80120   7.81900   7.95382   7.97654
 Alpha virt. eigenvalues --    8.06761   8.14693   8.31695   8.92823   9.65622
 Alpha virt. eigenvalues --   10.12841  10.18822  10.21849  10.25179  10.29984
 Alpha virt. eigenvalues --   13.49193  13.53625  13.66551  13.77870  14.01084
 Alpha virt. eigenvalues --   14.12540  18.54497  18.67036  24.89384  25.10800
 Alpha virt. eigenvalues --   25.17162  42.01758  69.74716  69.92726  69.97565
 Alpha virt. eigenvalues --   70.00369  70.02399  70.06249 139.78865 139.81016
 Alpha virt. eigenvalues --  308.95405
          Condensed to atoms (all electrons):
               1          2          3          4          5          6
     1  C    0.005250   0.001338   0.000829   0.003158  -0.002366  -0.005169
     2  C    0.001338   0.000616   0.000343   0.000821  -0.000885  -0.001719
     3  C    0.000829   0.000343   0.000618   0.001334  -0.001717  -0.000894
     4  C    0.003158   0.000821   0.001334   0.005199  -0.005132  -0.002353
     5  C   -0.002366  -0.000885  -0.001717  -0.005132   0.006147   0.002262
     6  C   -0.005169  -0.001719  -0.000894  -0.002353   0.002262   0.006184
     7  O   -0.000017   0.000020  -0.000007  -0.000112  -0.000009  -0.000146
     8  O   -0.000113  -0.000007   0.000020  -0.000018  -0.000144  -0.000010
     9  H    0.000010   0.000009   0.000020   0.000018  -0.000037  -0.000018
    10  H    0.000018   0.000019   0.000009   0.000010  -0.000018  -0.000037
    11  Mg  -0.002845  -0.000534  -0.000535  -0.002830   0.001916   0.001917
    12  H   -0.000050  -0.000018  -0.000005  -0.000014   0.000010   0.000063
    13  H   -0.000014  -0.000004  -0.000017  -0.000050   0.000062   0.000010
    14  H   -0.000901  -0.000041  -0.000041  -0.000896  -0.001358  -0.001370
    15  H   -0.000901  -0.000041  -0.000041  -0.000896  -0.001358  -0.001370
               7          8          9         10         11         12
     1  C   -0.000017  -0.000113   0.000010   0.000018  -0.002845  -0.000050
     2  C    0.000020  -0.000007   0.000009   0.000019  -0.000534  -0.000018
     3  C   -0.000007   0.000020   0.000020   0.000009  -0.000535  -0.000005
     4  C   -0.000112  -0.000018   0.000018   0.000010  -0.002830  -0.000014
     5  C   -0.000009  -0.000144  -0.000037  -0.000018   0.001916   0.000010
     6  C   -0.000146  -0.000010  -0.000018  -0.000037   0.001917   0.000063
     7  O    0.000051   0.000033   0.000000   0.000000   0.000147  -0.000002
     8  O    0.000033   0.000051   0.000000   0.000000   0.000147   0.000000
     9  H    0.000000   0.000000   0.000001   0.000000  -0.000003  -0.000000
    10  H    0.000000   0.000000   0.000000   0.000001  -0.000003  -0.000000
    11  Mg   0.000147   0.000147  -0.000003  -0.000003   0.002843   0.000015
    12  H   -0.000002   0.000000  -0.000000  -0.000000   0.000015   0.000001
    13  H    0.000000  -0.000002  -0.000000  -0.000000   0.000015   0.000000
    14  H    0.000764   0.000763  -0.000000  -0.000000  -0.005584   0.000000
    15  H    0.000764   0.000763  -0.000000  -0.000000  -0.005584   0.000000
              13         14         15
     1  C   -0.000014  -0.000901  -0.000901
     2  C   -0.000004  -0.000041  -0.000041
     3  C   -0.000017  -0.000041  -0.000041
     4  C   -0.000050  -0.000896  -0.000896
     5  C    0.000062  -0.001358  -0.001358
     6  C    0.000010  -0.001370  -0.001370
     7  O    0.000000   0.000764   0.000764
     8  O   -0.000002   0.000763   0.000763
     9  H   -0.000000  -0.000000  -0.000000
    10  H   -0.000000  -0.000000  -0.000000
    11  Mg   0.000015  -0.005584  -0.005584
    12  H    0.000000   0.000000   0.000000
    13  H    0.000001   0.000000   0.000000
    14  H    0.000000   0.590899   0.426228
    15  H    0.000000   0.426228   0.590899
 Mulliken charges:
               1
     1  C    0.001771
     2  C    0.000083
     3  C    0.000083
     4  C    0.001761
     5  C    0.002627
     6  C    0.002651
     7  O   -0.001485
     8  O   -0.001483
     9  H    0.000000
    10  H    0.000000
    11  Mg   0.010921
    12  H   -0.000001
    13  H   -0.000001
    14  H   -0.008464
    15  H   -0.008464
 Sum of Mulliken charges =   0.00000
 Mulliken charges with hydrogens summed into heavy atoms:
               1
     1  C    0.001770
     2  C    0.000083
     3  C    0.000083
     4  C    0.001760
     5  C    0.002627
     6  C    0.002651
     7  O   -0.001485
     8  O   -0.001483
    11  Mg  -0.006007
         Mulliken charges condensed to fragments:
      1      0.016928
      2     -0.016928
 Electronic spatial extent (au):  <R**2>=            244.0097
 Charge=              0.0000 electrons
 Dipole moment (field-independent basis, Debye):
    X=              0.0041    Y=              0.0000    Z=             -0.0000  Tot=              0.0041
 Quadrupole moment (field-independent basis, Debye-Ang):
   XX=             -2.0551   YY=             -2.0813   ZZ=             -1.4738
   XY=              0.0000   XZ=             -0.0000   YZ=             -0.0000
 Traceless Quadrupole moment (field-independent basis, Debye-Ang):
   XX=             -0.1850   YY=             -0.2113   ZZ=              0.3963
   XY=              0.0000   XZ=             -0.0000   YZ=             -0.0000
 Octapole moment (field-independent basis, Debye-Ang**2):
  XXX=            -36.0602  YYY=             -0.0008  ZZZ=              0.0000  XYY=            -12.0355
  XXY=             -0.0003  XXZ=              0.0000  XZZ=             -8.5304  YZZ=             -0.0002
  YYZ=              0.0000  XYZ=             -0.0000
 Hexadecapole moment (field-independent basis, Debye-Ang**3):
 XXXX=           -420.7286 YYYY=             -2.0501 ZZZZ=             -2.8825 XXXY=             -0.0047
 XXXZ=              0.0000 YYYX=             -0.0047 YYYZ=              0.0000 ZZZX=              0.0000
 ZZZY=              0.0000 XXYY=            -70.2961 XXZZ=            -50.2266 YYZZ=             -0.8406
 XXYZ=              0.0000 YYXZ=              0.0000 ZZXY=             -0.0011
 N-N= 7.067465832032D-01 E-N=-3.608987302267D+00  KE= 1.114599498895D+00
 Calling FoFJK, ICntrl=  10002127 FMM=F ISym2X=0 I1Cent= 0 IOpClX= 0 NMat=1 NMatS=1 NMatT=0.
 Cartesian Forces:  Max     0.006817640 RMS     0.001437932
 CPIOFr:  IOpCl= 0 IRwI=-1 IRwCP=  731 ICalc=  2 LCPTot=       91764 Len1MO=      239696 IndFrg=      810852
 Counterpoise: doing calculation for fragment   1 using the basis set of the fragment.
 Basis read from rwf:  (5D, 7F)
   230 basis functions,   370 primitive gaussians,   239 cartesian basis functions
    34 alpha electrons       34 beta electrons
       nuclear repulsion energy       447.3502633123 Hartrees.
 NAtoms=   15 NActive=   13 NUniq=   13 SFac= 1.00D+00 NAtFMM=   60 NAOKFM=F Big=F
 Integral buffers will be    131072 words long.
 Raffenetti 1 integral format.
 Two-electron integral symmetry is turned off.
 One-electron integrals computed using PRISM.
 NBasis=   230 RedAO= T EigKep=  1.61D-06  NBF=   230
 NBsUse=   230 1.00D-06 EigRej= -1.00D+00 NBFU=   230
 ExpMin= 1.46D-02 ExpMax= 4.39D+04 ExpMxC= 1.51D+03 IAcc=3 IRadAn=         5 AccDes= 0.00D+00
 Harris functional with IExCor=  205 and IRadAn=       5 diagonalized for initial guess.
 HarFok:  IExCor=  205 AccDes= 0.00D+00 IRadAn=         5 IDoV= 1 UseB2=F ITyADJ=14
 ICtDFT=  3500011 ScaDFX=  1.000000  1.000000  1.000000  1.000000
 FoFCou: FMM=F IPFlag=           0 FMFlag=      100000 FMFlg1=           0
         NFxFlg=           0 DoJE=T BraDBF=F KetDBF=T FulRan=T
         wScrn=  0.000000 ICntrl=       500 IOpCl=  0 I1Cent=   200000004 NGrid=           0
         NMat0=    1 NMatS0=      1 NMatT0=    0 NMatD0=    1 NMtDS0=    0 NMtDT0=    0
 Symmetry not used in FoFCou.
 Requested convergence on RMS density matrix=1.00D-08 within 128 cycles.
 Requested convergence on MAX density matrix=1.00D-06.
 Requested convergence on             energy=1.00D-06.
 No special actions if energy rises.
 SCF Done:  E(RHF) =  -578.984327178     A.U. after   16 cycles
            NFock= 16  Conv=0.65D-08     -V/T= 2.0013
 ExpMin= 1.46D-02 ExpMax= 4.39D+04 ExpMxC= 1.51D+03 IAcc=3 IRadAn=         5 AccDes= 0.00D+00
 HarFok:  IExCor=  205 AccDes= 0.00D+00 IRadAn=         5 IDoV=-2 UseB2=F ITyADJ=14
 ICtDFT= 12500011 ScaDFX=  1.000000  1.000000  1.000000  1.000000
 Range of M.O.s used for correlation:    14   230
 NBasis=   230 NAE=    34 NBE=    34 NFC=    13 NFV=     0
 NROrb=    217 NOA=    21 NOB=    21 NVA=   196 NVB=   196

 **** Warning!!: The largest alpha MO coefficient is  0.20150690D+03

 Fully direct method using O(ONN) memory.
 JobTyp=1 Pass  1:  I=  14 to  34 NPSUse= 32 ParTrn=T ParDer=T DoDerP=T.
 Spin components of T(2) and E(2):
     alpha-alpha T2 =       0.6097050771D-01 E2=     -0.1714896044D+00
     alpha-beta  T2 =       0.3049521363D+00 E2=     -0.9067914321D+00
     beta-beta   T2 =       0.6097050771D-01 E2=     -0.1714896044D+00
 ANorm=    0.1194526329D+01
 E2 =    -0.1249770641D+01 EUMP2 =    -0.58023409781885D+03
          IDoAtm=111111111111100
          Differentiating once with respect to electric field.
                with respect to dipole field.
          Differentiating once with respect to nuclear coordinates.
 Keep R1 ints in memory in canonical form, NReq=359926906.
          There are     1 degrees of freedom in the 1st order CPHF.  IDoFFX=0 NUNeed=     1.
 LinEq1:  Iter=  0 NonCon=     1 RMS=4.33D-03 Max=8.73D-02 NDo=     1
 AX will form     1 AO Fock derivatives at one time.
 LinEq1:  Iter=  1 NonCon=     1 RMS=1.06D-03 Max=1.78D-02 NDo=     1
 LinEq1:  Iter=  2 NonCon=     1 RMS=4.43D-04 Max=9.51D-03 NDo=     1
 LinEq1:  Iter=  3 NonCon=     1 RMS=1.41D-04 Max=2.23D-03 NDo=     1
 LinEq1:  Iter=  4 NonCon=     1 RMS=5.34D-05 Max=1.30D-03 NDo=     1
 LinEq1:  Iter=  5 NonCon=     1 RMS=1.34D-05 Max=4.02D-04 NDo=     1
 LinEq1:  Iter=  6 NonCon=     1 RMS=4.31D-06 Max=1.64D-04 NDo=     1
 LinEq1:  Iter=  7 NonCon=     1 RMS=2.21D-06 Max=9.36D-05 NDo=     1
 LinEq1:  Iter=  8 NonCon=     1 RMS=6.68D-07 Max=1.21D-05 NDo=     1
 LinEq1:  Iter=  9 NonCon=     1 RMS=1.79D-07 Max=3.82D-06 NDo=     1
 LinEq1:  Iter= 10 NonCon=     1 RMS=7.40D-08 Max=1.39D-06 NDo=     1
 LinEq1:  Iter= 11 NonCon=     1 RMS=2.11D-08 Max=3.67D-07 NDo=     1
 LinEq1:  Iter= 12 NonCon=     1 RMS=4.53D-09 Max=6.32D-08 NDo=     1
 LinEq1:  Iter= 13 NonCon=     1 RMS=6.92D-10 Max=1.06D-08 NDo=     1
 LinEq1:  Iter= 14 NonCon=     1 RMS=1.59D-10 Max=3.18D-09 NDo=     1
 LinEq1:  Iter= 15 NonCon=     0 RMS=3.96D-11 Max=6.60D-10 NDo=     1
 Linear equations converged to 1.000D-10 1.000D-09 after    15 iterations.
 End of Minotr F.D. properties file   721 does not exist.
 End of Minotr F.D. properties file   722 does not exist.
 End of Minotr F.D. properties file   788 does not exist.

 **********************************************************************

            Population analysis using the SCF Density.

 **********************************************************************

 Alpha  occ. eigenvalues --  -49.10387 -20.50783 -20.50782 -11.25876 -11.25777
 Alpha  occ. eigenvalues --  -11.20022 -11.19911 -11.19684 -11.19680  -3.83501
 Alpha  occ. eigenvalues --   -2.35782  -2.35756  -2.35594  -1.31697  -1.27983
 Alpha  occ. eigenvalues --   -1.09262  -0.96762  -0.94184  -0.79245  -0.76713
 Alpha  occ. eigenvalues --   -0.65306  -0.63265  -0.61047  -0.56392  -0.55287
 Alpha  occ. eigenvalues --   -0.54939  -0.49817  -0.49607  -0.47997  -0.44985
 Alpha  occ. eigenvalues --   -0.42401  -0.42095  -0.28891  -0.25336
 Alpha virt. eigenvalues --   -0.05739   0.01703   0.01917   0.02381   0.04417
 Alpha virt. eigenvalues --    0.06421   0.07330   0.08763   0.10453   0.10841
 Alpha virt. eigenvalues --    0.12338   0.13563   0.14476   0.15963   0.16135
 Alpha virt. eigenvalues --    0.16446   0.16733   0.17734   0.17791   0.18388
 Alpha virt. eigenvalues --    0.19387   0.20850   0.20889   0.20905   0.21797
 Alpha virt. eigenvalues --    0.24136   0.24475   0.24478   0.24516   0.25840
 Alpha virt. eigenvalues --    0.26696   0.28940   0.29201   0.30805   0.31024
 Alpha virt. eigenvalues --    0.31411   0.32469   0.34001   0.36274   0.36739
 Alpha virt. eigenvalues --    0.36880   0.36966   0.37456   0.38755   0.41445
 Alpha virt. eigenvalues --    0.43897   0.43910   0.44764   0.47200   0.47553
 Alpha virt. eigenvalues --    0.47979   0.50513   0.52875   0.53658   0.54345
 Alpha virt. eigenvalues --    0.55154   0.57947   0.58259   0.58887   0.64849
 Alpha virt. eigenvalues --    0.65396   0.70886   0.74054   0.74700   0.75431
 Alpha virt. eigenvalues --    0.75909   0.76242   0.78483   0.79842   0.80260
 Alpha virt. eigenvalues --    0.81034   0.83165   0.84591   0.86683   0.87017
 Alpha virt. eigenvalues --    0.90899   0.91403   0.93015   0.95278   0.96683
 Alpha virt. eigenvalues --    0.97207   1.01446   1.02936   1.03245   1.05720
 Alpha virt. eigenvalues --    1.09706   1.11577   1.13561   1.16283   1.16689
 Alpha virt. eigenvalues --    1.20477   1.22838   1.25809   1.27121   1.28771
 Alpha virt. eigenvalues --    1.28817   1.37262   1.37712   1.41068   1.41383
 Alpha virt. eigenvalues --    1.45148   1.49690   1.52809   1.53000   1.55156
 Alpha virt. eigenvalues --    1.56666   1.69073   1.69853   1.76376   1.83230
 Alpha virt. eigenvalues --    1.83867   1.86379   1.88305   1.92143   1.94881
 Alpha virt. eigenvalues --    1.96142   1.99429   2.03798   2.05119   2.09584
 Alpha virt. eigenvalues --    2.12011   2.16262   2.17731   2.20472   2.22958
 Alpha virt. eigenvalues --    2.26383   2.28290   2.28864   2.29602   2.36170
 Alpha virt. eigenvalues --    2.36693   2.37804   2.49449   2.55831   2.58073
 Alpha virt. eigenvalues --    2.65286   2.66032   2.78907   2.80443   2.89928
 Alpha virt. eigenvalues --    2.94140   3.02657   3.05085   3.05198   3.07826
 Alpha virt. eigenvalues --    3.09673   3.11344   3.17335   3.17620   3.18217
 Alpha virt. eigenvalues --    3.22877   3.28930   3.29717   3.33525   3.34909
 Alpha virt. eigenvalues --    3.41927   3.45638   3.50097   3.50785   3.58094
 Alpha virt. eigenvalues --    3.60356   3.60788   3.65675   3.69090   3.81131
 Alpha virt. eigenvalues --    3.83916   3.86502   3.87537   3.95580   3.99017
 Alpha virt. eigenvalues --    4.07531   4.16493   4.47440   4.49252   4.60274
 Alpha virt. eigenvalues --    4.67039   4.68278   5.29177   5.62519   5.67618
 Alpha virt. eigenvalues --    5.76729   5.89376   6.19908   6.35225   6.38360
 Alpha virt. eigenvalues --    6.61894   6.64266  24.77191  25.06321  25.11146
 Alpha virt. eigenvalues --   25.21418  25.27193  25.36494  51.69776  51.76699
 Alpha virt. eigenvalues --  105.73245
          Condensed to atoms (all electrons):
               1          2          3          4          5          6
     1  C   21.742541  -0.500208   1.267016  -7.647937  -9.930675   1.930346
     2  C   -0.500208   5.643763   0.304304   1.267310  -0.685553  -0.246795
     3  C    1.267016   0.304304   5.643710  -0.497876  -0.247035  -0.686969
     4  C   -7.647937   1.267310  -0.497876  21.736698   1.932018  -9.929554
     5  C   -9.930675  -0.685553  -0.247035   1.932018  21.242212  -7.281328
     6  C    1.930346  -0.246795  -0.686969  -9.929554  -7.281328  21.242989
     7  O   -1.104101   0.042002  -0.034588   0.263406   0.459633   0.327720
     8  O    0.263359  -0.034582   0.041895  -1.103805   0.327559   0.459635
     9  H   -0.030329   0.007160   0.396502  -0.032219   0.005334   0.019809
    10  H   -0.032254   0.396525   0.007138  -0.030297   0.019783   0.005362
    11  Mg   0.102994  -0.016244  -0.016226   0.102941  -0.168483  -0.168203
    12  H    0.324870  -0.008942  -0.004511  -0.003672   0.023642   0.039717
    13  H   -0.003693  -0.004505  -0.008975   0.324917   0.039693   0.023654
               7          8          9         10         11         12
     1  C   -1.104101   0.263359  -0.030329  -0.032254   0.102994   0.324870
     2  C    0.042002  -0.034582   0.007160   0.396525  -0.016244  -0.008942
     3  C   -0.034588   0.041895   0.396502   0.007138  -0.016226  -0.004511
     4  C    0.263406  -1.103805  -0.032219  -0.030297   0.102941  -0.003672
     5  C    0.459633   0.327559   0.005334   0.019783  -0.168483   0.023642
     6  C    0.327720   0.459635   0.019809   0.005362  -0.168203   0.039717
     7  O    8.338020   0.005113   0.000093  -0.000330   0.213385  -0.003762
     8  O    0.005113   8.338051  -0.000330   0.000093   0.213407  -0.000197
     9  H    0.000093  -0.000330   0.521827  -0.005041   0.000369  -0.000145
    10  H   -0.000330   0.000093  -0.005041   0.521825   0.000369  -0.004950
    11  Mg   0.213385   0.213407   0.000369   0.000369  10.653391   0.001291
    12  H   -0.003762  -0.000197  -0.000145  -0.004950   0.001291   0.509168
    13  H   -0.000197  -0.003757  -0.004951  -0.000145   0.001292   0.000019
              13
     1  C   -0.003693
     2  C   -0.004505
     3  C   -0.008975
     4  C    0.324917
     5  C    0.039693
     6  C    0.023654
     7  O   -0.000197
     8  O   -0.003757
     9  H   -0.004951
    10  H   -0.000145
    11  Mg   0.001292
    12  H    0.000019
    13  H    0.509172
 Mulliken charges:
               1
     1  C   -0.381930
     2  C   -0.164235
     3  C   -0.164386
     4  C   -0.381931
     5  C    0.263201
     6  C    0.263619
     7  O   -0.506397
     8  O   -0.506443
     9  H    0.121921
    10  H    0.121922
    11  Mg   1.079716
    12  H    0.127470
    13  H    0.127474
    14  H    0.000000
    15  H    0.000000
 Sum of Mulliken charges =  -0.00000
 Mulliken charges with hydrogens summed into heavy atoms:
               1
     1  C   -0.254460
     2  C   -0.042314
     3  C   -0.042465
     4  C   -0.254457
     5  C    0.263201
     6  C    0.263619
     7  O   -0.506397
     8  O   -0.506443
    11  Mg   1.079716
         Mulliken charges condensed to fragments:
      1     -0.000000
      2      0.000000
 Electronic spatial extent (au):  <R**2>=           1431.5845
 Charge=             -0.0000 electrons
 Dipole moment (field-independent basis, Debye):
    X=              8.9518    Y=              0.0003    Z=             -0.0000  Tot=              8.9518
 Quadrupole moment (field-independent basis, Debye-Ang):
   XX=              2.0185   YY=            -63.7487   ZZ=            -56.9412
   XY=              0.0006   XZ=             -0.0000   YZ=             -0.0000
 Traceless Quadrupole moment (field-independent basis, Debye-Ang):
   XX=             41.5756   YY=            -24.1915   ZZ=            -17.3841
   XY=              0.0006   XZ=             -0.0000   YZ=             -0.0000
 Octapole moment (field-independent basis, Debye-Ang**2):
  XXX=            129.3036  YYY=              0.0080  ZZZ=              0.0000  XYY=            -81.3885
  XXY=              0.0045  XXZ=              0.0000  XZZ=            -39.2055  YZZ=              0.0021
  YYZ=             -0.0000  XYZ=             -0.0000
 Hexadecapole moment (field-independent basis, Debye-Ang**3):
 XXXX=            103.0767 YYYY=           -468.4767 ZZZZ=            -67.6716 XXXY=              0.0181
 XXXZ=              0.0000 YYYX=              0.0198 YYYZ=             -0.0000 ZZZX=              0.0000
 ZZZY=             -0.0000 XXYY=           -347.2549 XXZZ=           -190.0916 YYZZ=            -97.0758
 XXYZ=             -0.0000 YYXZ=             -0.0000 ZZXY=              0.0036
 N-N= 4.473502633123D+02 E-N=-2.266164937064D+03  KE= 5.782306763734D+02
 Calling FoFJK, ICntrl=  10002127 FMM=F ISym2X=0 I1Cent= 0 IOpClX= 0 NMat=1 NMatS=1 NMatT=0.
 Cartesian Forces:  Max     0.002225823 RMS     0.000809843
 CPIOFr:  IOpCl= 0 IRwI=-1 IRwCP=  731 ICalc=  3 LCPTot=       91764 Len1MO=      239696 IndFrg=     1050548
 Counterpoise: doing calculation for fragment   2 using the basis set of the fragment.
 Basis read from rwf:  (5D, 7F)
    12 basis functions,    16 primitive gaussians,    12 cartesian basis functions
     1 alpha electrons        1 beta electrons
       nuclear repulsion energy         0.7067465832 Hartrees.
 NAtoms=   15 NActive=    2 NUniq=    2 SFac= 1.00D+00 NAtFMM=   60 NAOKFM=F Big=F
 Integral buffers will be    131072 words long.
 Raffenetti 1 integral format.
 Two-electron integral symmetry is turned off.
 One-electron integrals computed using PRISM.
 NBasis=    12 RedAO= T EigKep=  1.70D-02  NBF=    12
 NBsUse=    12 1.00D-06 EigRej= -1.00D+00 NBFU=    12
 ExpMin= 1.03D-01 ExpMax= 3.39D+01 ExpMxC= 3.39D+01 IAcc=3 IRadAn=         5 AccDes= 0.00D+00
 Harris functional with IExCor=  205 and IRadAn=       5 diagonalized for initial guess.
 HarFok:  IExCor=  205 AccDes= 0.00D+00 IRadAn=         5 IDoV= 1 UseB2=F ITyADJ=14
 ICtDFT=  3500011 ScaDFX=  1.000000  1.000000  1.000000  1.000000
 FoFCou: FMM=F IPFlag=           0 FMFlag=      100000 FMFlg1=           0
         NFxFlg=           0 DoJE=T BraDBF=F KetDBF=T FulRan=T
         wScrn=  0.000000 ICntrl=       500 IOpCl=  0 I1Cent=   200000004 NGrid=           0
         NMat0=    1 NMatS0=      1 NMatT0=    0 NMatD0=    1 NMtDS0=    0 NMtDT0=    0
 Symmetry not used in FoFCou.
 Keep R1 ints in memory in canonical form, NReq=6409140.
 Requested convergence on RMS density matrix=1.00D-08 within 128 cycles.
 Requested convergence on MAX density matrix=1.00D-06.
 Requested convergence on             energy=1.00D-06.
 No special actions if energy rises.
 SCF Done:  E(RHF) =  -1.13236777987     A.U. after    6 cycles
            NFock=  6  Conv=0.27D-10     -V/T= 2.0162
 Range of M.O.s used for correlation:     1    12
 NBasis=    12 NAE=     1 NBE=     1 NFC=     0 NFV=     0
 NROrb=     12 NOA=     1 NOB=     1 NVA=    11 NVB=    11
 Fully direct method using O(ONN) memory.
 JobTyp=1 Pass  1:  I=   1 to   1 NPSUse= 32 ParTrn=T ParDer=T DoDerP=T.
 Spin components of T(2) and E(2):
     alpha-alpha T2 =       0.0000000000D+00 E2=      0.0000000000D+00
     alpha-beta  T2 =       0.9162149001D-02 E2=     -0.2783048745D-01
     beta-beta   T2 =       0.0000000000D+00 E2=      0.0000000000D+00
 ANorm=    0.1004570629D+01
 E2 =    -0.2783048745D-01 EUMP2 =    -0.11601982673253D+01
          IDoAtm=000000000000011
          Differentiating once with respect to electric field.
                with respect to dipole field.
          Differentiating once with respect to nuclear coordinates.
 Keep R1 ints in memory in canonical form, NReq=6410725.
          There are     1 degrees of freedom in the 1st order CPHF.  IDoFFX=0 NUNeed=     1.
 LinEq1:  Iter=  0 NonCon=     1 RMS=5.55D-03 Max=1.42D-02 NDo=     1
 AX will form     1 AO Fock derivatives at one time.
 LinEq1:  Iter=  1 NonCon=     1 RMS=2.49D-04 Max=6.55D-04 NDo=     1
 LinEq1:  Iter=  2 NonCon=     1 RMS=7.13D-06 Max=2.17D-05 NDo=     1
 LinEq1:  Iter=  3 NonCon=     0 RMS=1.72D-20 Max=3.88D-20 NDo=     1
 Linear equations converged to 1.000D-10 1.000D-09 after     3 iterations.
 End of Minotr F.D. properties file   721 does not exist.
 End of Minotr F.D. properties file   722 does not exist.
 End of Minotr F.D. properties file   788 does not exist.

 **********************************************************************

            Population analysis using the SCF Density.

 **********************************************************************

 Alpha  occ. eigenvalues --   -0.59204
 Alpha virt. eigenvalues --    0.16519   0.30749   0.64148   1.33153   1.33153
 Alpha virt. eigenvalues --    1.81342   2.09242   2.09242   2.21967   2.71046
 Alpha virt. eigenvalues --    3.63720
          Condensed to atoms (all electrons):
              14         15
    14  H    0.582029   0.417971
    15  H    0.417971   0.582029
 Mulliken charges:
               1
     1  C    0.000000
     2  C    0.000000
     3  C    0.000000
     4  C    0.000000
     5  C    0.000000
     6  C    0.000000
     7  O    0.000000
     8  O    0.000000
     9  H    0.000000
    10  H    0.000000
    11  Mg   0.000000
    12  H    0.000000
    13  H    0.000000
    14  H    0.000000
    15  H   -0.000000
 Sum of Mulliken charges =   0.00000
 Mulliken charges with hydrogens summed into heavy atoms:
               1
     1  C    0.000000
     2  C    0.000000
     3  C    0.000000
     4  C    0.000000
     5  C    0.000000
     6  C    0.000000
     7  O    0.000000
     8  O    0.000000
    11  Mg   0.000000
         Mulliken charges condensed to fragments:
      1      0.000000
      2      0.000000
 Electronic spatial extent (au):  <R**2>=            244.0644
 Charge=              0.0000 electrons
 Dipole moment (field-independent basis, Debye):
    X=              0.0000    Y=             -0.0000    Z=             -0.0000  Tot=              0.0000
 Quadrupole moment (field-independent basis, Debye-Ang):
   XX=             -2.0937   YY=             -2.0937   ZZ=             -1.4963
   XY=             -0.0000   XZ=             -0.0000   YZ=              0.0000
 Traceless Quadrupole moment (field-independent basis, Debye-Ang):
   XX=             -0.1991   YY=             -0.1991   ZZ=              0.3982
   XY=             -0.0000   XZ=             -0.0000   YZ=              0.0000
 Octapole moment (field-independent basis, Debye-Ang**2):
  XXX=            -36.3226  YYY=             -0.0008  ZZZ=              0.0000  XYY=            -12.1075
  XXY=             -0.0003  XXZ=              0.0000  XZZ=             -8.6531  YZZ=             -0.0002
  YYZ=              0.0000  XYZ=              0.0000
 Hexadecapole moment (field-independent basis, Debye-Ang**3):
 XXXX=           -422.1904 YYYY=             -2.0986 ZZZZ=             -2.9685 XXXY=             -0.0048
 XXXZ=              0.0000 YYYX=             -0.0048 YYYZ=              0.0000 ZZZX=              0.0000
 ZZZY=              0.0000 XXYY=            -70.7148 XXZZ=            -50.9012 YYZZ=             -0.8624
 XXYZ=              0.0000 YYXZ=              0.0000 ZZXY=             -0.0011
 N-N= 7.067465832032D-01 E-N=-3.608450014193D+00  KE= 1.114294074276D+00
 Calling FoFJK, ICntrl=  10002127 FMM=F ISym2X=0 I1Cent= 0 IOpClX= 0 NMat=1 NMatS=1 NMatT=0.
 Cartesian Forces:  Max     0.007452762 RMS     0.001571180
 CPIOFr:  IOpCl= 0 IRwI=-1 IRwCP=  731 ICalc=  4 LCPTot=       91764 Len1MO=      239696 IndFrg=     1290244
 CPIOFr:  IOpCl= 0 IRwI=-2 IRwCP=  731 ICalc=  0 LCPTot=       91764 Len1MO=      239696 IndFrg=      331460
[...]
 ! A31   L(1,6,11,4,-1)        192.5511         -DE/DX =    0.0                 !
 ! A32   L(4,5,11,1,-2)        180.0            -DE/DX =    0.0                 !
 ! A33   L(1,6,11,4,-2)        180.0            -DE/DX =    0.0                 !
 ! D1    D(6,1,2,3)              0.0            -DE/DX =    0.0                 !
 ! D2    D(6,1,2,10)           180.0            -DE/DX =    0.0                 !
 ! D3    D(12,1,2,3)           180.0            -DE/DX =    0.0                 !
 ! D4    D(12,1,2,10)            0.0            -DE/DX =    0.0                 !
 ! D5    D(2,1,6,5)              0.0            -DE/DX =    0.0                 !
 ! D6    D(2,1,6,7)            180.0            -DE/DX =    0.0                 !
 ! D7    D(12,1,6,5)           180.0            -DE/DX =    0.0                 !
 ! D8    D(12,1,6,7)             0.0            -DE/DX =    0.0                 !
 ! D9    D(2,1,11,8)             0.0            -DE/DX =    0.0                 !
 ! D10   D(2,1,11,14)         -154.5493         -DE/DX =    0.0                 !
 ! D11   D(2,1,11,15)          154.5493         -DE/DX =    0.0                 !
 ! D12   D(12,1,11,8)          180.0            -DE/DX =    0.0                 !
 ! D13   D(12,1,11,14)          25.4507         -DE/DX =    0.0                 !
 ! D14   D(12,1,11,15)         -25.4507         -DE/DX =    0.0                 !
 ! D15   D(1,2,3,4)              0.0            -DE/DX =    0.0                 !
 ! D16   D(1,2,3,9)            180.0            -DE/DX =    0.0                 !
 ! D17   D(10,2,3,4)           180.0            -DE/DX =    0.0                 !
 ! D18   D(10,2,3,9)             0.0            -DE/DX =    0.0                 !
 ! D19   D(2,3,4,5)              0.0            -DE/DX =    0.0                 !
 ! D20   D(2,3,4,13)           180.0            -DE/DX =    0.0                 !
 ! D21   D(9,3,4,5)            180.0            -DE/DX =    0.0                 !
 ! D22   D(9,3,4,13)             0.0            -DE/DX =    0.0                 !
 ! D23   D(3,4,5,6)              0.0            -DE/DX =    0.0                 !
 ! D24   D(3,4,5,8)            180.0            -DE/DX =    0.0                 !
 ! D25   D(13,4,5,6)           180.0            -DE/DX =    0.0                 !
 ! D26   D(13,4,5,8)             0.0            -DE/DX =    0.0                 !
 ! D27   D(3,4,11,7)             0.0            -DE/DX =    0.0                 !
 ! D28   D(3,4,11,14)          154.5501         -DE/DX =    0.0                 !
 ! D29   D(3,4,11,15)         -154.5501         -DE/DX =    0.0                 !
 ! D30   D(13,4,11,7)          180.0            -DE/DX =    0.0                 !
 ! D31   D(13,4,11,14)         -25.4499         -DE/DX =    0.0                 !
 ! D32   D(13,4,11,15)          25.4499         -DE/DX =    0.0                 !
 ! D33   D(4,5,6,1)              0.0            -DE/DX =    0.0                 !
 ! D34   D(4,5,6,7)           -180.0            -DE/DX =    0.0                 !
 ! D35   D(8,5,6,1)           -180.0            -DE/DX =    0.0                 !
 ! D36   D(8,5,6,7)              0.0            -DE/DX =    0.0                 !
 --------------------------------------------------------------------------------
 GradGradGradGradGradGradGradGradGradGradGradGradGradGradGradGradGradGrad


 ----------------------------------------------------------------------

 Electric dipole moment (input orientation):
 (Debye = 10**-18 statcoulomb cm , SI units = C m)
                  (au)            (Debye)         (10**-30 SI)
   Tot        0.372582D+01      0.947010D+01      0.315888D+02
   x          0.372582D+01      0.947010D+01      0.315888D+02
   y         -0.787940D-04     -0.200274D-03     -0.668043D-03
   z          0.000000D+00      0.000000D+00      0.000000D+00

 Dipole polarizability, Alpha (input orientation).
 (esu units = cm**3 , SI units = C**2 m**2 J**-1)
 Alpha(0;0):
               (au)            (10**-24 esu)      (10**-40 SI)
   iso        0.100327D+03      0.148669D+02      0.165417D+02
   aniso      0.666993D+02      0.988381D+01      0.109972D+02
   xx         0.141286D+03      0.209364D+02      0.232949D+02
   yx         0.104638D-02      0.155058D-03      0.172525D-03
   yy         0.948378D+02      0.140535D+02      0.156366D+02
   zx         0.135700D-04      0.201087D-05      0.223739D-05
   zy         0.000000D+00      0.000000D+00      0.000000D+00
   zz         0.648571D+02      0.961082D+01      0.106935D+02

 ----------------------------------------------------------------------

 Dipole orientation:
     6          0.00005597          2.64506444         -0.05315986
     6          0.00002626          1.32345781         -2.34539602
     6         -0.00002976         -1.32368146         -2.34536891
     6         -0.00005591         -2.64524340         -0.05331652
     6         -0.00002683         -1.35709969          2.26135182
     6          0.00003057          1.35747231          2.26150616
     8          0.00006055          2.66286774          4.49700732
     8         -0.00005203         -2.66249226          4.49694479
     1         -0.00005308         -2.36091290         -4.11841453
     1          0.00004683          2.36069649         -4.11837950
    12          0.00000358          0.00015149          6.83346789
     1          0.00009948          4.69930470         -0.00422529
     1         -0.00009927         -4.69943509         -0.00406196
     1         -0.70628275          0.00025012         10.97250114
     1          0.70629506          0.00022025         10.97250011

 Electric dipole moment (dipole orientation):
 (Debye = 10**-18 statcoulomb cm , SI units = C m)
                  (au)            (Debye)         (10**-30 SI)
   Tot        0.372582D+01      0.947010D+01      0.315888D+02
   x          0.000000D+00      0.000000D+00      0.000000D+00
   y          0.000000D+00      0.000000D+00      0.000000D+00
   z          0.372582D+01      0.947010D+01      0.315888D+02

 Dipole polarizability, Alpha (dipole orientation).
 (esu units = cm**3 , SI units = C**2 m**2 J**-1)
 Alpha(0;0):
               (au)            (10**-24 esu)      (10**-40 SI)
   iso        0.100327D+03      0.148669D+02      0.165417D+02
   aniso      0.666993D+02      0.988381D+01      0.109972D+02
   xx         0.648571D+02      0.961082D+01      0.106935D+02
   yx         0.634168D-03      0.939740D-04      0.104560D-03
   yy         0.948378D+02      0.140535D+02      0.156366D+02
   zx         0.302386D-04      0.448090D-05      0.498567D-05
   zy         0.202866D-02      0.300617D-03      0.334482D-03
   zz         0.141286D+03      0.209364D+02      0.232949D+02

 ----------------------------------------------------------------------
 1\1\GINC-SG14\Freq\RMP2-FC\6-311+G(d,p)\C6H6Mg1O2\YUC\13-Sep-2024\0\\#
 N Geom=AllCheck Guess=TCheck SCRF=Check GenChk RMP2(FC)/6-311+G(d,p) F
 req\\one\\0,1\C,-0.0281013854,1.3997084162,-0.0000000328\C,-1.24111531
 4,0.7003699615,0.0000002057\C,-1.2411305934,-0.7004358154,0.0000002267
 \C,-0.0282434911,-1.3998019302,-0.0000000304\C,1.1966406622,-0.7181715
 372,-0.0000003032\C,1.196752712,0.718318104,-0.000000301\O,2.379743592
 ,1.4090785981,-0.0000008764\O,2.3796509036,-1.4089805513,-0.0000009006
 \H,-2.1793975356,-1.2492952166,0.0000004205\H,-2.1793261591,1.24927287
 18,0.0000003868\Mg,3.6161154809,0.0000036918,0.0000001795\H,-0.0021833
 395,2.4867649991,-0.0000000525\H,-0.002202089,-2.4868339095,-0.0000000
 619\H,5.8063973359,0.000001657,0.3737520622\H,5.8063972204,0.000001660
 8,-0.3737519227\\Version=ES64L-G16RevB.01\HF=-1.1323896\MP2=-1.1602148
 \RMSD=0.000e+00\RMSF=4.156e-05\ZeroPoint=0.0978056\Thermal=0.1067039\D
 ipole=3.7258233,-0.0000788,0.0000021\DipoleDeriv=-0.0127974,-0.158829,
 0.,0.0147223,0.0571584,0.,0.,0.,-0.1948422,-0.134546,0.0635175,0.,-0.1
 633945,0.0141806,0.,0.,0.,-0.1886925,-0.1343635,-0.0635546,0.,0.163458
 6,0.0143044,0.,0.,0.,-0.1886698,-0.0128483,0.1588689,0.,-0.0148591,0.0
 570557,0.,-0.0000001,0.,-0.1948142,0.8880581,-0.5600914,-0.0000004,-0.
 9862752,0.2122937,0.0000003,-0.0000005,0.0000004,-0.0192557,0.888081,0
 .5601147,-0.0000004,0.9862828,0.2123264,-0.0000003,-0.0000005,-0.00000
 03,-0.0191965,-1.5159733,-0.5394757,0.0000005,-0.6435058,-0.7512353,0.
 0000002,0.0000006,0.0000002,-0.4879478,-1.5160957,0.5394937,0.0000005,
 0.6435894,-0.7512779,-0.0000002,0.0000006,-0.0000003,-0.4879571,-0.101
 7066,-0.0806254,0.,-0.0813158,0.0111362,0.,0.,0.,0.1551992,-0.1016324,
 0.0805918,0.,0.0812769,0.011137,0.,0.,0.,0.155219,1.7334542,-0.0000125
 ,-0.0000004,-0.0000083,1.0331759,0.,-0.0000004,0.,1.0622202,0.0672454,
 -0.0150311,0.,0.0096352,-0.0984869,0.,0.,0.,0.1385431,0.0672549,0.0150
 336,0.,-0.0096058,-0.0983784,0.,0.,0.,0.1385582,-0.057065,-0.0000003,0
 .0905039,-0.0000004,0.0383051,0.0000008,0.151511,0.,0.0658181,-0.05706
 52,-0.0000003,-0.090504,-0.0000004,0.0383051,-0.0000008,-0.1515108,0.,
 0.0658181\Polar=141.2856956,0.0010464,94.8378369,0.0000136,-0.0000001,
 64.8570513\PG=C01 [X(C6H6Mg1O2)]\NImag=2\\0.69544997,0.01635329,0.7315
 2832,-0.00000014,0.,0.04848016,-0.29990942,-0.12489207,0.00000006,0.72
 165454,-0.08453281,-0.17494502,0.00000002,-0.02569486,0.69329613,0.000
 00006,0.00000002,0.00453023,-0.00000013,0.,0.05081599,0.01514216,-0.02
 769098,0.,-0.11313843,-0.02049438,0.00000002,0.72178651,-0.05001774,-0
 .02897872,0.,0.02048504,-0.35251183,0.,0.02555192,0.69328554,-0.000000
 01,0.,-0.03605532,0.00000002,0.,0.00206164,-0.00000014,-0.00000001,0.0
 5079101,-0.03359641,-0.00398342,0.00000002,0.01512692,0.05001904,-0.00
 000001,-0.30004443,0.08464878,0.00000006,0.69529882,0.00400275,-0.0021
 8871,0.,0.02767027,-0.02898066,0.,0.12502609,-0.17498246,-0.00000003,-
 0.01668061,0.73162055,0.00000002,0.,0.03532819,0.,0.,-0.03606288,0.000
 00007,-0.00000002,0.00455394,-0.00000015,0.00000002,0.04851355,0.01768
 395,0.02633444,-0.00000001,-0.00705584,-0.01974235,0.,-0.04566217,0.01
 326935,0.,-0.27008939,-0.13233783,0.00000005,0.69060904,0.04607320,-0.
 01335801,0.,-0.01589823,-0.03285669,0.,-0.01220170,0.04498041,0.,-0.08
 629709,-0.18028362,0.00000001,0.05640261,0.60453001,-0.00000002,0.,-0.
 03885940,0.,0.,0.03406076,0.,0.,-0.03997137,0.00000007,0.00000003,-0.0
 0130199,-0.00000016,0.00000002,0.08550738,-0.27039787,0.13248675,0.000
 00005,-0.04563302,-0.01328278,0.,-0.00706858,0.01975496,0.,0.01767575,
 -0.02631808,-0.00000001,-0.09550335,-0.02969096,0.,0.69099279,0.086452
 86,-0.18030259,-0.00000001,0.01218519,0.04497161,0.,0.01591707,-0.0328
 4824,0.,-0.04607559,-0.01337361,0.,0.02965188,-0.25404484,-0.00000001,
 -0.05650656,0.60459212,0.00000007,-0.00000003,-0.00126003,0.,0.,-0.039
 98741,0.,0.,0.03406335,-0.00000002,0.,-0.03888897,0.,0.00000001,-0.022
 53194,-0.00000016,-0.00000001,0.08549316,-0.05411435,-0.02872635,0.000
 00003,-0.00028160,0.00733007,0.,-0.00373862,-0.00271633,0.,0.00405804,
 -0.00092587,0.,-0.03371421,-0.01082034,0.00000002,-0.22836269,-0.08642
 582,0.00000007,0.35731927,0.01001583,0.01360400,0.,-0.00062104,-0.0034
 1732,0.,-0.00134584,0.00186663,0.,0.00573812,-0.00721652,0.,-0.0422222
 2,-0.02927322,0.00000002,-0.08333251,-0.12651859,0.00000005,0.05156299
 ,0.23250818,0.00000001,0.00000001,0.00281223,0.,0.,0.00867882,0.,0.,-0
 .00315492,0.,0.,0.00830493,0.00000002,0.,0.00640827,0.00000009,0.00000
 005,-0.04127399,-0.00000006,-0.00000012,0.02785299,0.00406008,0.000925
 81,0.,-0.00373736,0.00271600,0.,-0.00028448,-0.00733238,0.,-0.05411115
 ,0.02872278,0.00000003,-0.22828741,0.08639889,0.00000008,-0.03371853,0
 .01082274,0.00000002,0.01980977,-0.00577377,-0.00000001,0.35725853,-0.
 00573824,-0.00722077,0.,0.00134525,0.00186733,0.,0.00062156,-0.0034183
 4,0.,-0.01001723,0.01359991,0.,0.08329687,-0.12650069,-0.00000005,0.04
 223061,-0.02927592,-0.00000002,0.00577272,0.00532281,0.,-0.05152847,0.
 23249595,0.,0.,0.00830352,0.,0.,-0.00315466,0.,0.,0.00867663,0.0000000
 1,-0.00000001,0.00281290,0.00000009,-0.00000005,-0.04127647,0.00000002
 ,0.,0.00641211,-0.00000001,0.,0.00036757,-0.00000007,0.00000012,0.0278
 5163,0.00191589,0.00020959,0.,0.00311846,0.00398320,0.,-0.27026358,-0.
 12498555,0.00000005,-0.01782422,-0.01695706,0.,-0.00113680,0.00358122,
 0.,-0.00006879,0.00130402,0.,0.00008116,-0.00035031,0.,-0.00240036,-0.
 00025574,0.,0.28455895,0.00137335,-0.00583753,0.,-0.02886972,-0.009143
 45,0.,-0.12497459,-0.12979552,0.00000003,0.01598788,0.01048275,0.,0.00
 294696,-0.00101819,0.,0.00133586,-0.00112781,0.,-0.00034758,0.00035478
 ,0.,0.00090119,0.00038472,0.,0.13327104,0.13454468,0.,0.,0.00945449,0.
 ,0.,-0.00533951,0.00000005,0.00000003,-0.02087639,0.,0.,-0.00480522,0.
 ,0.,0.00936213,0.,0.,-0.00279540,0.,0.,-0.00057857,0.,0.,0.00003436,-0
 .00000005,-0.00000003,0.02072871,-0.01781992,0.01695505,0.,-0.27029293
 ,0.12502889,0.00000005,0.00312126,-0.00398592,0.,0.00191511,-0.0002099
 8,0.,-0.00006844,-0.00130394,0.,-0.00113658,-0.00358096,0.,-0.00239956
 ,0.00025587,0.,0.00008133,0.00035016,0.,0.00066920,0.00041553,0.,0.284
 58054,-0.01598847,0.01048183,0.,0.12501507,-0.12982167,-0.00000002,0.0
 2886821,-0.00914343,0.,-0.00137387,-0.00583787,0.,-0.00133552,-0.00112
 783,0.,-0.00294635,-0.00101916,0.,-0.00090132,0.00038477,0.,0.00034733
 ,0.00035484,0.,-0.00041534,0.00110371,0.,-0.13330964,0.13457253,0.,0.,
 -0.00481141,0.00000005,-0.00000002,-0.02085688,0.,0.,-0.00534245,0.,0.
 ,0.00945438,0.,0.,-0.00279680,0.,0.,0.00936252,0.,0.,0.00003427,0.,0.,
 -0.00057750,0.,0.,-0.00271833,-0.00000005,0.00000003,0.02071755,-0.000
 97274,-0.00260559,0.,-0.00012125,-0.00076345,0.,-0.00012158,0.00076318
 ,0.,-0.00097297,0.00260588,0.,-0.02599120,-0.00806159,0.,-0.02599564,0
 .00806514,0.,-0.06001735,0.07076731,-0.00000006,-0.06002967,-0.0707723
 0,-0.00000006,0.00027114,0.00009117,0.,0.00027104,-0.00009101,0.,0.186
 14779,-0.00423221,-0.00076275,0.,0.00165864,-0.00008923,0.,-0.00165889
 ,-0.00008904,0.,0.00423094,-0.00076212,0.,-0.02406279,0.00244849,0.,0.
 02406599,0.00244821,0.,0.06728790,-0.08917737,0.00000006,-0.06729104,-
 0.08917026,-0.00000007,0.00021606,-0.00007278,0.,-0.00021610,-0.000072
 80,0.,0.00000160,0.17639454,0.,0.,-0.00169410,0.,0.,0.00048874,0.,0.,0
 .00048825,0.,0.,-0.00169305,-0.00000001,0.,0.00340791,-0.00000001,0.,0
 .00341131,-0.00000005,0.00000006,-0.00476893,-0.00000005,-0.00000006,-
 0.00476816,0.,0.,0.00012172,0.,0.,0.00012173,0.00000011,0.,0.00634698,
 -0.05540175,-0.00486574,0.,0.00486689,-0.02740613,0.,-0.00465088,-0.00
 251659,0.,-0.00157406,0.00030948,0.,-0.00457521,0.00105946,0.,0.003174
 41,0.02800009,0.,0.00295075,-0.00135545,0.,-0.00068220,0.00212627,0.,0
 .00006044,-0.00153211,0.,0.00106069,0.00060568,0.,0.00074503,0.0003435
 4,0.,0.05390967,-0.00330196,-0.34298556,0.,0.00436991,-0.00935136,0.,-
 0.00323901,0.00102133,0.,0.00057588,0.00085523,0.,0.00209440,0.0008562
 2,0.,-0.00567057,-0.01390417,0.,-0.00046158,0.00205415,0.,0.00087465,-
 0.00105426,0.,0.00017000,-0.00063980,0.,-0.00023913,0.00075529,0.,-0.0
 0047505,-0.00019965,0.,0.00526552,0.36267939,0.,0.,-0.02293437,0.,0.,-
 0.00464629,0.,0.,0.00945160,0.,0.,-0.00348436,0.,0.,0.00922998,0.,0.,-
 0.00143182,0.,0.,-0.00331080,0.,0.,-0.00098806,0.,0.,0.00033722,0.,0.,
 -0.00289387,0.,0.,0.00012337,0.,0.,0.02072796,-0.00157351,-0.00030916,
 0.,-0.00465092,0.00251580,0.,0.00486892,0.02740512,0.,-0.05539591,0.00
 490049,0.,0.00317467,-0.02799397,0.,-0.00457423,-0.00105744,0.,-0.0006
 8210,-0.00212581,0.,0.00294990,0.00135513,0.,0.00106099,-0.00060575,0.
 ,0.00006071,0.00153200,0.,0.00074495,-0.00034358,0.,0.00009923,0.00002
 447,0.,0.05390031,-0.00057590,0.00085502,0.,0.00323855,0.00102176,0.,-
 0.00437145,-0.00934671,0.,0.00334317,-0.34304340,0.,0.00566992,-0.0138
 9824,0.,-0.00209208,0.00085677,0.,-0.00087433,-0.00105348,0.,0.0004620
 7,0.00205345,0.,0.00023921,0.00075511,0.,-0.00017015,-0.00063952,0.,0.
 00047475,-0.00019957,0.,-0.00002450,-0.00008930,0.,-0.00530681,0.36272
 563,0.,0.,-0.00348419,0.,0.,0.00945118,0.,0.,-0.00464617,0.,0.,-0.0229
 2142,0.,0.,-0.00143685,0.,0.,0.00922865,0.,0.,-0.00098791,0.,0.,-0.003
 30989,0.,0.,-0.00289435,0.,0.,0.00033766,0.,0.,0.00012324,0.,0.,-0.000
 20791,0.,0.,0.02072058,-0.00023305,-0.00009580,0.00009934,0.00002698,0
 .00016188,-0.00001672,0.00002695,-0.00016192,-0.00001675,-0.00023305,0
 .00009585,0.00009934,0.00030818,-0.00062378,0.00004396,0.00030817,0.00
 062368,0.00004395,-0.00045425,-0.00060658,-0.00005823,-0.00045423,0.00
 060671,-0.00005825,-0.00002124,0.00000339,-0.00001542,-0.00002123,-0.0
 0000339,-0.00001543,-0.00697877,-0.00000002,-0.00423775,0.00000849,0.0
 0000623,0.00001243,0.00000849,-0.00000622,0.00001244,0.01514297,0.0000
 5802,0.00005526,-0.00004918,0.00000400,-0.00001980,0.00001481,-0.00000
 401,-0.00001981,-0.00001481,-0.00005800,0.00005528,0.00004918,0.000017
 14,-0.00022690,0.00016253,-0.00001713,-0.00022689,-0.00016251,0.000122
 92,0.00028059,0.00003589,-0.00012290,0.00028061,-0.00003593,-0.0000051
 6,0.00000467,-0.00001087,0.00000516,0.00000467,0.00001086,-0.00000001,
 -0.00034783,0.00000002,-0.00000476,0.00000124,-0.00000415,0.00000476,0
 .00000124,0.00000415,-0.00000002,-0.00026716,0.00050372,0.00008262,0.0
 0009499,-0.00010217,-0.00036080,-0.00001986,-0.00010214,0.00036086,-0.
 00001989,0.00050372,-0.00008265,0.00009501,-0.00100482,0.00120429,0.00
 009919,-0.00100491,-0.00120421,0.00009923,0.00155380,0.00084845,-0.000
 19198,0.00155382,-0.00084863,-0.00019199,0.00003524,-0.00000048,-0.000
 01543,0.00003523,0.00000048,-0.00001544,-0.00216781,0.00000005,-0.0008
 5450,-0.00001290,-0.00000706,0.00001368,-0.00001290,0.00000705,0.00001
 368,0.00216466,0.00000001,0.37018027,-0.00023305,-0.00009580,-0.000099
 34,0.00002698,0.00016188,0.00001672,0.00002695,-0.00016192,0.00001675,
 -0.00023305,0.00009585,-0.00009934,0.00030818,-0.00062378,-0.00004396,
 0.00030817,0.00062368,-0.00004395,-0.00045425,-0.00060658,0.00005823,-
 0.00045423,0.00060671,0.00005825,-0.00002124,0.00000339,0.00001542,-0.
 00002123,-0.00000339,0.00001543,-0.00697878,-0.00000002,0.00423775,0.0
 0000849,0.00000623,-0.00001243,0.00000849,-0.00000622,-0.00001244,-0.0
 0743440,0.,-0.00194253,0.01514297,0.00005802,0.00005526,0.00004918,0.0
 0000400,-0.00001980,-0.00001481,-0.00000401,-0.00001981,0.00001481,-0.
 00005800,0.00005528,-0.00004918,0.00001714,-0.00022690,-0.00016253,-0.
 00001713,-0.00022689,0.00016251,0.00012292,0.00028059,-0.00003589,-0.0
 0012290,0.00028061,0.00003593,-0.00000516,0.00000467,0.00001087,0.0000
 0516,0.00000467,-0.00001086,-0.00000001,-0.00034783,-0.00000002,-0.000
 00476,0.00000124,0.00000415,0.00000476,0.00000124,-0.00000415,0.,0.000
 42482,0.00000002,-0.00000002,-0.00026716,-0.00050372,-0.00008262,0.000
 09499,0.00010217,0.00036080,-0.00001986,0.00010214,-0.00036086,-0.0000
 1989,-0.00050372,0.00008265,0.00009501,0.00100482,-0.00120429,0.000099
 19,0.00100491,0.00120421,0.00009923,-0.00155380,-0.00084845,-0.0001919
 8,-0.00155382,0.00084863,-0.00019199,-0.00003524,0.00000048,-0.0000154
 3,-0.00003523,-0.00000048,-0.00001544,0.00216782,-0.00000005,-0.000854
 50,0.00001290,0.00000706,0.00001368,0.00001290,-0.00000705,0.00001368,
 0.00194242,-0.00000001,-0.36928696,-0.00216455,-0.00000002,0.37018027\
 \0.00007260,-0.00009787,0.,-0.00005960,0.00000322,0.,0.00003311,-0.000
 01843,0.,-0.00008999,0.00000833,0.,-0.00004359,0.00015261,0.00000003,-
 0.00003909,-0.00004931,0.00000003,0.00005079,0.00007732,-0.00000003,0.
 00005909,-0.00007612,-0.00000003,-0.00000730,-0.00000025,0.,0.00000357
 ,-0.00000914,0.,0.00002384,0.00000133,0.00000001,0.00000532,0.00000108
 ,0.,0.00000310,0.00000720,0.,-0.00000593,0.00000001,-0.00003016,-0.000
 00593,0.00000001,0.00003016\\\@


      SCIENCE SANS CONSCIENCE N'EST QUE RUINE DE L'AME.

                                                  -- RABELAIS
 Job cpu time:       0 days 15 hours 49 minutes  3.6 seconds.
 Elapsed time:       0 days  0 hours 30 minutes  4.8 seconds.
 File lengths (MBytes):  RWF=  17991 Int=      0 D2E=      0 Chk=     17 Scr=      2
 Normal termination of Gaussian 16 at Fri Sep 13 19:41:29 2024.
