 Entering Gaussian System, Link 0=g16
 Input=two.gjf
 Output=two.log
 Initial command:
 /opt/ohpc/pub/apps/gaussian/avx2/g16/l1.exe "/home/yuc/calculation/H2_catecholate/O-Mg-O_H2/H2-cate_new_geo_opt/one_H2/Gau-614455.inp" -scrdir="/home/yuc/calculation/H2_catecholate/O-Mg-O_H2/H2-cate_new_geo_opt/one_H2/"
 Default CPUs for threads: 16-31,80-95
 Default is to use a total of  32 processors:
                               32 via shared-memory
                                1 via Linda
 Entering Link 1 = /opt/ohpc/pub/apps/gaussian/avx2/g16/l1.exe PID=    614456.
  
 Copyright (c) 1988-2017, Gaussian, Inc.  All Rights Reserved.
  
 This is part of the Gaussian(R) 16 program.  It is based on
 the Gaussian(R) 09 system (copyright 2009, Gaussian, Inc.),
 the Gaussian(R) 03 system (copyright 2003, Gaussian, Inc.),
 the Gaussian(R) 98 system (copyright 1998, Gaussian, Inc.),
 the Gaussian(R) 94 system (copyright 1995, Gaussian, Inc.),
 the Gaussian 92(TM) system (copyright 1992, Gaussian, Inc.),
 the Gaussian 90(TM) system (copyright 1990, Gaussian, Inc.),
 the Gaussian 88(TM) system (copyright 1988, Gaussian, Inc.),
 the Gaussian 86(TM) system (copyright 1986, Carnegie Mellon
 University), and the Gaussian 82(TM) system (copyright 1983,
 Carnegie Mellon University). Gaussian is a federally registered
 trademark of Gaussian, Inc.
  
 This software contains proprietary and confidential information,
 including trade secrets, belonging to Gaussian, Inc.
  
 This software is provided under written license and may be
 used, copied, transmitted, or stored only in accord with that
 written license.
  
 The following legend is applicable only to US Government
 contracts under FAR:
  
                    RESTRICTED RIGHTS LEGEND
  
 Use, reproduction and disclosure by the US Government is
 subject to restrictions as set forth in subparagraphs (a)
 and (c) of the Commercial Computer Software - Restricted
 Rights clause in FAR 52.227-19.
  
 Gaussian, Inc.
 340 Quinnipiac St., Bldg. 40, Wallingford CT 06492
  
  
 ---------------------------------------------------------------
 Warning -- This program may not be used in any manner that
 competes with the business of Gaussian, Inc. or will provide
 assistance to any competitor of Gaussian, Inc.  The licensee
 of this program is prohibited from giving any competitor of
 Gaussian, Inc. access to this program.  By using this program,
 the user acknowledges that Gaussian, Inc. is engaged in the
 business of creating and licensing software in the field of
 computational chemistry and represents and warrants to the
 licensee that it is not a competitor of Gaussian, Inc. and that
 it will not use this program in any manner prohibited above.
 ---------------------------------------------------------------
  

 Cite this work as:
 Gaussian 16, Revision B.01,
 M. J. Frisch, G. W. Trucks, H. B. Schlegel, G. E. Scuseria, 
 M. A. Robb, J. R. Cheeseman, G. Scalmani, V. Barone, 
 G. A. Petersson, H. Nakatsuji, X. Li, M. Caricato, A. V. Marenich, 
 J. Bloino, B. G. Janesko, R. Gomperts, B. Mennucci, H. P. Hratchian, 
 J. V. Ortiz, A. F. Izmaylov, J. L. Sonnenberg, D. Williams-Young, 
 F. Ding, F. Lipparini, F. Egidi, J. Goings, B. Peng, A. Petrone, 
 T. Henderson, D. Ranasinghe, V. G. Zakrzewski, J. Gao, N. Rega, 
 G. Zheng, W. Liang, M. Hada, M. Ehara, K. Toyota, R. Fukuda, 
 J. Hasegawa, M. Ishida, T. Nakajima, Y. Honda, O. Kitao, H. Nakai, 
 T. Vreven, K. Throssell, J. A. Montgomery, Jr., J. E. Peralta, 
 F. Ogliaro, M. J. Bearpark, J. J. Heyd, E. N. Brothers, K. N. Kudin, 
 V. N. Staroverov, T. A. Keith, R. Kobayashi, J. Normand, 
 K. Raghavachari, A. P. Rendell, J. C. Burant, S. S. Iyengar, 
 J. Tomasi, M. Cossi, J. M. Millam, M. Klene, C. Adamo, R. Cammi, 
 J. W. Ochterski, R. L. Martin, K. Morokuma, O. Farkas, 
 J. B. Foresman, and D. J. Fox, Gaussian, Inc., Wallingford CT, 2016.
 
 ******************************************
 Gaussian 16:  ES64L-G16RevB.01 20-Dec-2017
                13-Sep-2024 
 ******************************************
 SetSPE:  set environment variable "MP_BIND" = "yes"
 SetSPE:  set environment variable "MP_BLIST" = "16,17,18,19,20,21,22,23,24,25,26,27,28,29,30,31,80,81,82,83,84,85,86,87,88,89,90,91,92,93,94,95"
 -------------------------------------------------
 # opt freq MP2/6-311+g(d,p) nosymm counterpoise=2
 -------------------------------------------------
 1/18=20,19=15,38=1,62=2/1,3;
 2/9=110,12=2,15=1,17=6,18=5,40=1/2;
 1/18=20,19=15,38=1,53=2,62=2,63=101/22;
 3/5=4,6=6,7=111,11=9,25=1,30=1,71=1/1,2,3;
 4//1;
 5/5=2,38=5/2;
 8/6=4,10=2/1;
 9/15=2,16=-3/6;
 10/5=1,31=1/2;
 6/7=2,8=2,9=2,10=2/1;
 7/7=1,12=2,30=1,33=-1/1,2,3,16;
 1/18=20,19=15,53=2,62=2,63=101/22;
 3/5=7,6=11,7=111,11=9,25=1,30=1,71=1,82=7/1,2,3;
 4//1;
 5/5=2,38=5/2;
 8/6=4,10=2/1;
 9/15=2,16=-3/6;
 10/5=1,31=1/2;
 6/7=2,8=2,9=2,10=2/1;
 7/7=1,12=2,30=1,33=-1/1,2,3,16;
 1/18=20,19=15,53=2,62=2,63=101/22(-8);
 7/9=1,44=-1,126=2/16;
 1/18=20,19=15,62=2/3(2);
 2/9=110,15=1/2;
 99//99;
 2/9=110,15=1/2;
 1/18=20,19=15,53=3,62=2,63=101/22;
 3/5=7,6=11,7=111,11=9,25=1,30=1,71=1,82=7/1,2,3;
 4/5=5,16=3,69=1/1;
 5/5=2,38=5/2;
 8/6=4,10=2/1;
 9/15=2,16=-3/6;
 10/5=1,31=1/2;
 7/7=1,12=2,30=1,33=-1/1,2,3,16;
 1/18=20,19=15,53=3,62=2,63=101/22(-7);
 7/9=1,44=-1,126=2/16;
 1/18=20,19=15,62=2/3(-11);
 2/9=110,15=1/2;
 99/9=10/99;
 ---
 two
 ---
 Symbolic Z-matrix:
 Charge =  0 Multiplicity = 1 in supermolecule
 Charge =  0 Multiplicity = 1 in fragment      1.
 Charge =  0 Multiplicity = 1 in fragment      2.
 C(Fragment=1)         0.01266   1.39677   0. 
 C(Fragment=1)         1.23752   0.71703   0. 
 C(Fragment=1)         1.23753  -0.71621   0. 
 C(Fragment=1)         0.01293  -1.39652   0. 
 C(Fragment=1)        -1.21169  -0.71675   0. 
 C(Fragment=1)        -1.2117    0.71641   0. 
 O(Fragment=1)        -2.3964    1.43378   0. 
 O(Fragment=1)        -2.39637  -1.43413   0. 
 O(Fragment=1)         2.42358  -1.42067   0. 
 O(Fragment=1)         2.42379   1.42117   0. 
 Mg(Fragment=1)       -3.59434  -0.00015   0. 
 Mg(Fragment=1)        3.63966   0.        0. 
 H(Fragment=1)         0.01158   2.48375   0. 
 H(Fragment=1)         0.01224  -2.48349   0. 
 H(Fragment=2)         5.808    -0.0005    0.37411 
 H(Fragment=2)         5.808    -0.0005   -0.37411 
 
 Add virtual bond connecting atoms H15        and Mg12       Dist= 4.16D+00.
 Add virtual bond connecting atoms H16        and Mg12       Dist= 4.16D+00.

 GradGradGradGradGradGradGradGradGradGradGradGradGradGradGradGradGradGrad
 Berny optimization.
 Initialization pass.
                           ----------------------------
                           !    Initial Parameters    !
                           ! (Angstroms and Degrees)  !
 --------------------------                            --------------------------
 ! Name  Definition              Value          Derivative Info.                !
 --------------------------------------------------------------------------------
 ! R1    R(1,2)                  1.4008         estimate D2E/DX2                !
 ! R2    R(1,6)                  1.4007         estimate D2E/DX2                !
 ! R3    R(1,13)                 1.087          estimate D2E/DX2                !
 ! R4    R(2,3)                  1.4332         estimate D2E/DX2                !
 ! R5    R(2,10)                 1.3795         estimate D2E/DX2                !
 ! R6    R(2,12)                 2.5069         estimate D2E/DX2                !
 ! R7    R(3,4)                  1.4009         estimate D2E/DX2                !
 ! R8    R(3,9)                  1.3795         estimate D2E/DX2                !
 ! R9    R(3,12)                 2.5066         estimate D2E/DX2                !
 ! R10   R(4,5)                  1.4006         estimate D2E/DX2                !
 ! R11   R(4,14)                 1.087          estimate D2E/DX2                !
 ! R12   R(5,6)                  1.4332         estimate D2E/DX2                !
 ! R13   R(5,8)                  1.3849         estimate D2E/DX2                !
 ! R14   R(5,11)                 2.4881         estimate D2E/DX2                !
 ! R15   R(6,7)                  1.385          estimate D2E/DX2                !
 ! R16   R(6,11)                 2.4881         estimate D2E/DX2                !
 ! R17   R(7,11)                 1.8685         estimate D2E/DX2                !
 ! R18   R(8,11)                 1.8685         estimate D2E/DX2                !
 ! R19   R(9,12)                 1.8701         estimate D2E/DX2                !
 ! R20   R(10,12)                1.8703         estimate D2E/DX2                !
 ! R21   R(12,15)                2.2004         estimate D2E/DX2                !
 ! R22   R(12,16)                2.2004         estimate D2E/DX2                !
 ! R23   R(15,16)                0.7482         estimate D2E/DX2                !
 ! A1    A(2,1,6)              121.911          estimate D2E/DX2                !
 ! A2    A(2,1,13)             119.0858         estimate D2E/DX2                !
 ! A3    A(6,1,13)             119.0032         estimate D2E/DX2                !
 ! A4    A(1,2,3)              119.0289         estimate D2E/DX2                !
 ! A5    A(1,2,10)             120.2791         estimate D2E/DX2                !
 ! A6    A(3,2,10)             120.692          estimate D2E/DX2                !
 ! A7    A(2,3,4)              119.0531         estimate D2E/DX2                !
 ! A8    A(2,3,9)              120.7084         estimate D2E/DX2                !
 ! A9    A(4,3,9)              120.2384         estimate D2E/DX2                !
 ! A10   A(3,4,5)              121.9126         estimate D2E/DX2                !
 ! A11   A(3,4,14)             119.0898         estimate D2E/DX2                !
 ! A12   A(5,4,14)             118.9976         estimate D2E/DX2                !
 ! A13   A(4,5,6)              119.0344         estimate D2E/DX2                !
 ! A14   A(4,5,8)              119.7695         estimate D2E/DX2                !
 ! A15   A(6,5,8)              121.1962         estimate D2E/DX2                !
 ! A16   A(1,6,5)              119.06           estimate D2E/DX2                !
 ! A17   A(1,6,7)              119.7434         estimate D2E/DX2                !
 ! A18   A(5,6,7)              121.1966         estimate D2E/DX2                !
 ! A19   A(5,11,7)              66.8628         estimate D2E/DX2                !
 ! A20   A(6,11,8)              66.862          estimate D2E/DX2                !
 ! A21   A(7,11,8)             100.2475         estimate D2E/DX2                !
 ! A22   A(2,12,9)              66.0569         estimate D2E/DX2                !
 ! A23   A(2,12,15)            160.7932         estimate D2E/DX2                !
 ! A24   A(2,12,16)            160.7932         estimate D2E/DX2                !
 ! A25   A(3,12,10)             66.0541         estimate D2E/DX2                !
 ! A26   A(3,12,15)            160.7853         estimate D2E/DX2                !
 ! A27   A(3,12,16)            160.7853         estimate D2E/DX2                !
 ! A28   A(9,12,10)             98.8885         estimate D2E/DX2                !
 ! A29   A(9,12,15)            129.8398         estimate D2E/DX2                !
 ! A30   A(9,12,16)            129.8398         estimate D2E/DX2                !
 ! A31   A(10,12,15)           129.8514         estimate D2E/DX2                !
 ! A32   A(10,12,16)           129.8514         estimate D2E/DX2                !
 ! A33   L(1,2,12,4,-1)        192.4085         estimate D2E/DX2                !
 ! A34   L(4,3,12,1,-1)        192.4511         estimate D2E/DX2                !
 ! A35   L(4,5,11,1,-1)        192.2948         estimate D2E/DX2                !
 ! A36   L(1,6,11,4,-1)        192.3223         estimate D2E/DX2                !
 ! A37   L(1,2,12,4,-2)        180.0            estimate D2E/DX2                !
 ! A38   L(4,3,12,1,-2)        180.0            estimate D2E/DX2                !
 ! A39   L(4,5,11,1,-2)        180.0            estimate D2E/DX2                !
 ! A40   L(1,6,11,4,-2)        180.0            estimate D2E/DX2                !
 ! D1    D(6,1,2,3)              0.0            estimate D2E/DX2                !
 ! D2    D(6,1,2,10)           180.0            estimate D2E/DX2                !
 ! D3    D(13,1,2,3)           180.0            estimate D2E/DX2                !
 ! D4    D(13,1,2,10)            0.0            estimate D2E/DX2                !
 ! D5    D(2,1,6,5)              0.0            estimate D2E/DX2                !
 ! D6    D(2,1,6,7)            180.0            estimate D2E/DX2                !
 ! D7    D(13,1,6,5)           180.0            estimate D2E/DX2                !
 ! D8    D(13,1,6,7)             0.0            estimate D2E/DX2                !
 ! D9    D(2,1,11,8)             0.0            estimate D2E/DX2                !
 ! D10   D(13,1,11,8)          180.0            estimate D2E/DX2                !
 ! D11   D(6,1,12,9)             0.0            estimate D2E/DX2                !
 ! D12   D(6,1,12,15)         -154.3412         estimate D2E/DX2                !
 ! D13   D(6,1,12,16)          154.3412         estimate D2E/DX2                !
 ! D14   D(13,1,12,9)          180.0            estimate D2E/DX2                !
 ! D15   D(13,1,12,15)          25.6588         estimate D2E/DX2                !
 ! D16   D(13,1,12,16)         -25.6588         estimate D2E/DX2                !
 ! D17   D(1,2,3,4)              0.0            estimate D2E/DX2                !
 ! D18   D(1,2,3,9)            180.0            estimate D2E/DX2                !
 ! D19   D(10,2,3,4)           180.0            estimate D2E/DX2                !
 ! D20   D(10,2,3,9)             0.0            estimate D2E/DX2                !
 ! D21   D(2,3,4,5)              0.0            estimate D2E/DX2                !
 ! D22   D(2,3,4,14)           180.0            estimate D2E/DX2                !
 ! D23   D(9,3,4,5)            180.0            estimate D2E/DX2                !
 ! D24   D(9,3,4,14)             0.0            estimate D2E/DX2                !
 ! D25   D(3,4,11,7)             0.0            estimate D2E/DX2                !
 ! D26   D(14,4,11,7)         -180.0            estimate D2E/DX2                !
 ! D27   D(5,4,12,10)            0.0            estimate D2E/DX2                !
 ! D28   D(5,4,12,15)          154.3663         estimate D2E/DX2                !
 ! D29   D(5,4,12,16)         -154.3663         estimate D2E/DX2                !
 ! D30   D(14,4,12,10)         180.0            estimate D2E/DX2                !
 ! D31   D(14,4,12,15)         -25.6337         estimate D2E/DX2                !
 ! D32   D(14,4,12,16)          25.6337         estimate D2E/DX2                !
 ! D33   D(3,4,5,6)              0.0            estimate D2E/DX2                !
 ! D34   D(3,4,5,8)            180.0            estimate D2E/DX2                !
 ! D35   D(14,4,5,6)           180.0            estimate D2E/DX2                !
 ! D36   D(14,4,5,8)             0.0            estimate D2E/DX2                !
 ! D37   D(4,5,6,1)              0.0            estimate D2E/DX2                !
 ! D38   D(4,5,6,7)            180.0            estimate D2E/DX2                !
 ! D39   D(8,5,6,1)            180.0            estimate D2E/DX2                !
 ! D40   D(8,5,6,7)              0.0            estimate D2E/DX2                !
 --------------------------------------------------------------------------------
 Trust Radius=3.00D-01 FncErr=1.00D-07 GrdErr=1.00D-07 EigMax=2.50D+02 EigMin=1.00D-04
 Number of steps in this run=    100 maximum allowed number of steps=    100.
 GradGradGradGradGradGradGradGradGradGradGradGradGradGradGradGradGradGrad

                          Input orientation:                          
 ---------------------------------------------------------------------
 Center     Atomic      Atomic             Coordinates (Angstroms)
 Number     Number       Type             X           Y           Z
 ---------------------------------------------------------------------
      1          6           0        0.012663    1.396774    0.000000
      2          6           0        1.237517    0.717028    0.000000
      3          6           0        1.237526   -0.716214    0.000000
      4          6           0        0.012927   -1.396516    0.000000
      5          6           0       -1.211686   -0.716754    0.000000
      6          6           0       -1.211697    0.716410    0.000000
      7          8           0       -2.396395    1.433780    0.000000
      8          8           0       -2.396365   -1.434125    0.000000
      9          8           0        2.423579   -1.420667    0.000000
     10          8           0        2.423791    1.421171    0.000000
     11         12           0       -3.594341   -0.000150    0.000001
     12         12           0        3.639657    0.000004    0.000000
     13          1           0        0.011577    2.483752    0.000000
     14          1           0        0.012239   -2.483487    0.000000
     15          1           0        5.808004   -0.000503    0.374111
     16          1           0        5.808004   -0.000503   -0.374111
 ---------------------------------------------------------------------
                    Distance matrix (angstroms):
                    1          2          3          4          5
     1  C    0.000000
     2  C    1.400829   0.000000
     3  C    2.442337   1.433242   0.000000
     4  C    2.793290   2.442681   1.400876   0.000000
     5  C    2.442546   2.838014   2.449212   1.400626   0.000000
     6  C    1.400697   2.449214   2.837447   2.442163   1.433164
     7  O    2.409342   3.703924   4.222305   3.716908   2.455266
     8  O    3.717177   4.222861   3.704127   2.409586   1.384950
     9  O    3.708165   2.444685   1.379484   2.410773   3.702789
    10  O    2.411251   1.379516   2.444512   3.708318   4.217513
    11  Mg   3.868058   4.884792   4.884638   3.868103   2.488085
    12  Mg   3.886650   2.506871   2.506632   3.886314   4.904006
    13  H    1.086979   2.150405   3.426767   3.880268   3.426312
    14  H    3.880261   3.427040   2.150484   1.086971   2.149265
    15  H    5.973133   4.641569   4.641279   5.972581   7.066047
    16  H    5.973133   4.641569   4.641279   5.972581   7.066047
                    6          7          8          9         10
     6  C    0.000000
     7  O    1.384965   0.000000
     8  O    2.455247   2.867905   0.000000
     9  O    4.216910   5.601787   4.819963   0.000000
    10  O    3.703169   4.820202   5.602376   2.841838   0.000000
    11  Mg   2.488062   1.868483   1.868537   6.183302   6.183694
    12  Mg   4.903965   6.204002   6.204054   1.870067   1.870306
    13  H    2.149395   2.626932   4.598689   4.589362   2.635878
    14  H    3.425983   4.598532   2.627267   2.635175   4.589329
    15  H    7.066125   8.337223   8.337080   3.689330   3.689717
    16  H    7.066125   8.337223   8.337080   3.689330   3.689717
                   11         12         13         14         15
    11  Mg   0.000000
    12  Mg   7.233998   0.000000
    13  H    4.378631   4.396813   0.000000
    14  H    4.378856   4.396122   4.967239   0.000000
    15  H    9.409785   2.200384   6.317440   6.316333   0.000000
    16  H    9.409785   2.200384   6.317440   6.316333   0.748222
                   16
    16  H    0.000000
 Symmetry turned off by external request.
 Stoichiometry    C6H4Mg2O4
 Framework group  C1[X(C6H4Mg2O4)]
 Deg. of freedom    42
 Full point group                 C1      NOp   1
 Rotational constants (GHZ):           2.3555854           0.4439539           0.3737071
 Counterpoise: doing full-system calculation.
 Standard basis: 6-311+G(d,p) (5D, 7F)
   304 basis functions,   492 primitive gaussians,   316 cartesian basis functions
    48 alpha electrons       48 beta electrons
       nuclear repulsion energy       771.9362159448 Hartrees.
 NAtoms=   16 NActive=   16 NUniq=   16 SFac= 1.00D+00 NAtFMM=   60 NAOKFM=F Big=F
 Integral buffers will be    131072 words long.
 Raffenetti 1 integral format.
 Two-electron integral symmetry is turned off.
 One-electron integrals computed using PRISM.
 NBasis=   304 RedAO= T EigKep=  3.33D-06  NBF=   304
 NBsUse=   303 1.00D-06 EigRej=  8.94D-07 NBFU=   303
 ExpMin= 1.46D-02 ExpMax= 4.39D+04 ExpMxC= 1.51D+03 IAcc=3 IRadAn=         5 AccDes= 0.00D+00
 Harris functional with IExCor=  205 and IRadAn=       5 diagonalized for initial guess.
 HarFok:  IExCor=  205 AccDes= 0.00D+00 IRadAn=         5 IDoV= 1 UseB2=F ITyADJ=14
 ICtDFT=  3500011 ScaDFX=  1.000000  1.000000  1.000000  1.000000
 FoFCou: FMM=F IPFlag=           0 FMFlag=      100000 FMFlg1=           0
         NFxFlg=           0 DoJE=T BraDBF=F KetDBF=T FulRan=T
         wScrn=  0.000000 ICntrl=       500 IOpCl=  0 I1Cent=   200000004 NGrid=           0
         NMat0=    1 NMatS0=      1 NMatT0=    0 NMatD0=    1 NMtDS0=    0 NMtDT0=    0
 Symmetry not used in FoFCou.
 Requested convergence on RMS density matrix=1.00D-08 within 128 cycles.
 Requested convergence on MAX density matrix=1.00D-06.
 Requested convergence on             energy=1.00D-06.
 No special actions if energy rises.
 SCF Done:  E(RHF) =  -928.340612020     A.U. after   16 cycles
            NFock= 16  Conv=0.73D-08     -V/T= 2.0012
 ExpMin= 1.46D-02 ExpMax= 4.39D+04 ExpMxC= 1.51D+03 IAcc=3 IRadAn=         5 AccDes= 0.00D+00
 HarFok:  IExCor=  205 AccDes= 0.00D+00 IRadAn=         5 IDoV=-2 UseB2=F ITyADJ=14
 ICtDFT= 12500011 ScaDFX=  1.000000  1.000000  1.000000  1.000000
 Range of M.O.s used for correlation:    21   303
 NBasis=   304 NAE=    48 NBE=    48 NFC=    20 NFV=     0
 NROrb=    283 NOA=    28 NOB=    28 NVA=   255 NVB=   255

 **** Warning!!: The largest alpha MO coefficient is  0.10615520D+03

 Disk-based method using ON**2 memory for 28 occupieds at a time.
 Estimated scratch disk usage=  1695726327 words.
 Actual    scratch disk usage=  1424407287 words.
 JobTyp=1 Pass  1:  I=  21 to  48 NPSUse= 32 ParTrn=T ParDer=T DoDerP=T.
 (rs|ai) integrals will be sorted in core.
 Spin components of T(2) and E(2):
     alpha-alpha T2 =       0.7961931678D-01 E2=     -0.2353534084D+00
     alpha-beta  T2 =       0.3969348913D+00 E2=     -0.1230492894D+01
     beta-beta   T2 =       0.7961931678D-01 E2=     -0.2353534084D+00
 ANorm=    0.1247466843D+01
 E2 =    -0.1701199711D+01 EUMP2 =    -0.93004181173065D+03
          IDoAtm=1111111111111111
          Differentiating once with respect to electric field.
                with respect to dipole field.
          Differentiating once with respect to nuclear coordinates.
 Keep R1 ints in memory in canonical form, NReq=1090578710.
          There are     1 degrees of freedom in the 1st order CPHF.  IDoFFX=0 NUNeed=     1.
 LinEq1:  Iter=  0 NonCon=     1 RMS=4.24D-03 Max=1.23D-01 NDo=     1
 AX will form     1 AO Fock derivatives at one time.
 LinEq1:  Iter=  1 NonCon=     1 RMS=1.01D-03 Max=2.85D-02 NDo=     1
 LinEq1:  Iter=  2 NonCon=     1 RMS=4.61D-04 Max=1.28D-02 NDo=     1
 LinEq1:  Iter=  3 NonCon=     1 RMS=1.19D-04 Max=2.70D-03 NDo=     1
 LinEq1:  Iter=  4 NonCon=     1 RMS=5.27D-05 Max=2.15D-03 NDo=     1
 LinEq1:  Iter=  5 NonCon=     1 RMS=1.21D-05 Max=3.59D-04 NDo=     1
 LinEq1:  Iter=  6 NonCon=     1 RMS=3.26D-06 Max=7.37D-05 NDo=     1
 LinEq1:  Iter=  7 NonCon=     1 RMS=1.18D-06 Max=2.24D-05 NDo=     1
 LinEq1:  Iter=  8 NonCon=     1 RMS=3.96D-07 Max=1.30D-05 NDo=     1
 LinEq1:  Iter=  9 NonCon=     1 RMS=1.44D-07 Max=6.15D-06 NDo=     1
 LinEq1:  Iter= 10 NonCon=     1 RMS=6.92D-08 Max=3.65D-06 NDo=     1
 LinEq1:  Iter= 11 NonCon=     1 RMS=2.09D-08 Max=9.23D-07 NDo=     1
 LinEq1:  Iter= 12 NonCon=     1 RMS=6.49D-09 Max=2.58D-07 NDo=     1
 LinEq1:  Iter= 13 NonCon=     1 RMS=2.89D-09 Max=1.13D-07 NDo=     1
 LinEq1:  Iter= 14 NonCon=     1 RMS=7.25D-10 Max=1.49D-08 NDo=     1
 LinEq1:  Iter= 15 NonCon=     1 RMS=1.62D-10 Max=2.73D-09 NDo=     1
 LinEq1:  Iter= 16 NonCon=     0 RMS=4.26D-11 Max=9.74D-10 NDo=     1
 Linear equations converged to 1.000D-10 1.000D-09 after    16 iterations.
 End of Minotr F.D. properties file   721 does not exist.
 End of Minotr F.D. properties file   722 does not exist.
 End of Minotr F.D. properties file   788 does not exist.

 **********************************************************************

            Population analysis using the SCF Density.

 **********************************************************************

 Alpha  occ. eigenvalues --  -49.07234 -49.06009 -20.47929 -20.47927 -20.47536
 Alpha  occ. eigenvalues --  -20.47535 -11.22367 -11.22266 -11.22234 -11.22134
 Alpha  occ. eigenvalues --  -11.16034 -11.16032  -3.80432  -3.79288  -2.32728
 Alpha  occ. eigenvalues --   -2.32673  -2.32506  -2.31607  -2.31568  -2.31394
 Alpha  occ. eigenvalues --   -1.28245  -1.27678  -1.24580  -1.24284  -1.03856
 Alpha  occ. eigenvalues --   -0.92580  -0.88095  -0.76537  -0.74410  -0.71327
 Alpha  occ. eigenvalues --   -0.63447  -0.60279  -0.57633  -0.53491  -0.52961
 Alpha  occ. eigenvalues --   -0.51950  -0.51683  -0.49591  -0.49295  -0.45387
 Alpha  occ. eigenvalues --   -0.44224  -0.43715  -0.41879  -0.39835  -0.39319
 Alpha  occ. eigenvalues --   -0.34737  -0.24651  -0.19585
 Alpha virt. eigenvalues --   -0.03604   0.01010   0.01599   0.02865   0.03032
 Alpha virt. eigenvalues --    0.03295   0.03604   0.03619   0.05830   0.05850
 Alpha virt. eigenvalues --    0.07668   0.08146   0.08209   0.09307   0.10954
 Alpha virt. eigenvalues --    0.11387   0.14536   0.14983   0.15538   0.17296
 Alpha virt. eigenvalues --    0.17586   0.18099   0.18825   0.19234   0.19569
 Alpha virt. eigenvalues --    0.20251   0.20319   0.21347   0.21588   0.22428
 Alpha virt. eigenvalues --    0.23056   0.23312   0.23379   0.23423   0.24084
 Alpha virt. eigenvalues --    0.24322   0.24389   0.25145   0.27870   0.28548
 Alpha virt. eigenvalues --    0.28978   0.29742   0.30377   0.32057   0.33036
 Alpha virt. eigenvalues --    0.33337   0.34952   0.36609   0.37801   0.38993
 Alpha virt. eigenvalues --    0.39194   0.39349   0.39659   0.40119   0.41732
 Alpha virt. eigenvalues --    0.41746   0.41856   0.43704   0.44658   0.45326
 Alpha virt. eigenvalues --    0.47168   0.47495   0.48644   0.48648   0.49349
 Alpha virt. eigenvalues --    0.49783   0.50415   0.50517   0.52038   0.54663
 Alpha virt. eigenvalues --    0.55011   0.55173   0.55204   0.57129   0.58190
 Alpha virt. eigenvalues --    0.59395   0.59794   0.60639   0.61134   0.61445
 Alpha virt. eigenvalues --    0.63726   0.65556   0.66860   0.69287   0.70145
 Alpha virt. eigenvalues --    0.73475   0.74628   0.77232   0.77751   0.78183
 Alpha virt. eigenvalues --    0.79516   0.79959   0.82449   0.83340   0.83353
 Alpha virt. eigenvalues --    0.85042   0.86965   0.87319   0.91254   0.91611
 Alpha virt. eigenvalues --    0.92019   0.92817   0.94749   0.94760   0.97354
 Alpha virt. eigenvalues --    0.99730   1.00072   1.03329   1.04568   1.06079
 Alpha virt. eigenvalues --    1.09313   1.12506   1.17377   1.17416   1.19423
 Alpha virt. eigenvalues --    1.20015   1.24632   1.25025   1.28058   1.30399
 Alpha virt. eigenvalues --    1.32102   1.32900   1.34828   1.35222   1.35437
 Alpha virt. eigenvalues --    1.41511   1.41884   1.43400   1.44031   1.48095
 Alpha virt. eigenvalues --    1.51511   1.52738   1.53165   1.53954   1.54778
 Alpha virt. eigenvalues --    1.56402   1.57827   1.58646   1.60798   1.61657
 Alpha virt. eigenvalues --    1.69628   1.70605   1.72944   1.79906   1.83319
 Alpha virt. eigenvalues --    1.84034   1.89823   1.91991   1.92200   1.96462
 Alpha virt. eigenvalues --    2.00545   2.02228   2.03892   2.05597   2.07271
 Alpha virt. eigenvalues --    2.08183   2.08892   2.16488   2.16615   2.18625
 Alpha virt. eigenvalues --    2.20231   2.22872   2.25221   2.28548   2.29572
 Alpha virt. eigenvalues --    2.35105   2.37499   2.40143   2.41145   2.41378
 Alpha virt. eigenvalues --    2.50165   2.53181   2.57185   2.64735   2.66963
 Alpha virt. eigenvalues --    2.72547   2.79398   2.84263   2.95056   3.03264
 Alpha virt. eigenvalues --    3.07432   3.09159   3.09495   3.13622   3.18651
 Alpha virt. eigenvalues --    3.19763   3.27321   3.29989   3.33975   3.36457
 Alpha virt. eigenvalues --    3.36774   3.38959   3.39294   3.44823   3.46365
 Alpha virt. eigenvalues --    3.46565   3.51029   3.51486   3.52375   3.53706
 Alpha virt. eigenvalues --    3.54248   3.61329   3.64006   3.65884   3.66546
 Alpha virt. eigenvalues --    3.66609   3.67868   3.69738   3.72547   3.83674
 Alpha virt. eigenvalues --    3.86224   3.90580   3.92751   3.94478   3.99741
 Alpha virt. eigenvalues --    4.00836   4.12110   4.19283   4.23850   4.62986
 Alpha virt. eigenvalues --    4.64073   4.68828   4.71054   4.73752   5.32251
 Alpha virt. eigenvalues --    5.65393   5.67455   5.69736   5.71405   5.79452
 Alpha virt. eigenvalues --    5.82046   5.90009   5.91923   6.13796   6.32660
 Alpha virt. eigenvalues --    6.35822   6.37603   6.41635   6.43229   6.65943
 Alpha virt. eigenvalues --    6.68129   6.68687   6.75943  24.79737  25.06899
 Alpha virt. eigenvalues --   25.09948  25.16221  25.30759  25.36572  51.71412
 Alpha virt. eigenvalues --   51.74481  51.79005  51.80735 105.76620 105.88026
          Condensed to atoms (all electrons):
               1          2          3          4          5          6
     1  C   24.121943   4.355070 -11.715375  -2.021411 -11.783295   5.053902
     2  C    4.355070  27.119933 -13.873613 -11.707453  -3.554753   2.711363
     3  C  -11.715375 -13.873613  27.132644   4.366777   2.712121  -3.571274
     4  C   -2.021411 -11.707453   4.366777  24.118065   5.041409 -11.786109
     5  C  -11.783295  -3.554753   2.712121   5.041409  27.755114 -15.119926
     6  C    5.053902   2.711363  -3.571274 -11.786109 -15.119926  27.762055
     7  O   -1.007873  -0.042011   0.110791   0.145529   0.889011  -0.162062
     8  O    0.145583   0.110677  -0.042355  -1.007843  -0.161736   0.888993
     9  O    0.135063   0.791438  -0.051300  -0.975410  -0.056344   0.107694
    10  O   -0.975188  -0.050298   0.790945   0.134933   0.107556  -0.056659
    11  Mg   0.080191  -0.013777  -0.013765   0.080241  -0.159585  -0.158760
    12  Mg   0.013489  -0.132519  -0.132474   0.013167   0.033957   0.033940
    13  H    0.342386   0.015644   0.021506  -0.035934   0.020983   0.008943
    14  H   -0.035926   0.021512   0.015673   0.342375   0.008903   0.020997
    15  H    0.000070  -0.000887  -0.000845   0.000088   0.000537   0.000536
    16  H    0.000070  -0.000887  -0.000845   0.000088   0.000537   0.000536
               7          8          9         10         11         12
     1  C   -1.007873   0.145583   0.135063  -0.975188   0.080191   0.013489
     2  C   -0.042011   0.110677   0.791438  -0.050298  -0.013777  -0.132519
     3  C    0.110791  -0.042355  -0.051300   0.790945  -0.013765  -0.132474
     4  C    0.145529  -1.007843  -0.975410   0.134933   0.080241   0.013167
     5  C    0.889011  -0.161736  -0.056344   0.107556  -0.159585   0.033957
     6  C   -0.162062   0.888993   0.107694  -0.056659  -0.158760   0.033940
     7  O    8.393907  -0.009692   0.000054   0.000071   0.191927   0.001093
     8  O   -0.009692   8.394021   0.000070   0.000053   0.192049   0.001093
     9  O    0.000054   0.000070   8.386569  -0.003337   0.000726   0.195593
    10  O    0.000071   0.000053  -0.003337   8.386579   0.000726   0.195656
    11  Mg   0.191927   0.192049   0.000726   0.000726  10.745962  -0.002025
    12  Mg   0.001093   0.001093   0.195593   0.195656  -0.002025  10.649440
    13  H   -0.004251   0.000031  -0.000010  -0.004294   0.001543   0.002265
    14  H    0.000031  -0.004241  -0.004309  -0.000011   0.001540   0.002268
    15  H   -0.000000  -0.000000   0.002947   0.002939  -0.000037   0.037171
    16  H   -0.000000  -0.000000   0.002947   0.002939  -0.000037   0.037171
              13         14         15         16
     1  C    0.342386  -0.035926   0.000070   0.000070
     2  C    0.015644   0.021512  -0.000887  -0.000887
     3  C    0.021506   0.015673  -0.000845  -0.000845
     4  C   -0.035934   0.342375   0.000088   0.000088
     5  C    0.020983   0.008903   0.000537   0.000537
     6  C    0.008943   0.020997   0.000536   0.000536
     7  O   -0.004251   0.000031  -0.000000  -0.000000
     8  O    0.000031  -0.004241  -0.000000  -0.000000
     9  O   -0.000010  -0.004309   0.002947   0.002947
    10  O   -0.004294  -0.000011   0.002939   0.002939
    11  Mg   0.001543   0.001540  -0.000037  -0.000037
    12  Mg   0.002265   0.002268   0.037171   0.037171
    13  H    0.508829   0.000020   0.000000   0.000000
    14  H    0.000020   0.508832   0.000000   0.000000
    15  H    0.000000   0.000000   0.529909   0.370739
    16  H    0.000000   0.000000   0.370739   0.529909
 Mulliken charges:
               1
     1  C   -0.708699
     2  C    0.250561
     3  C    0.251388
     4  C   -0.708510
     5  C    0.265512
     6  C    0.265834
     7  O   -0.506525
     8  O   -0.506703
     9  O   -0.532391
    10  O   -0.532609
    11  Mg   1.053081
    12  Mg   1.050716
    13  H    0.122340
    14  H    0.122335
    15  H    0.056835
    16  H    0.056835
 Sum of Mulliken charges =  -0.00000
 Mulliken charges with hydrogens summed into heavy atoms:
               1
     1  C   -0.586359
     2  C    0.250561
     3  C    0.251388
     4  C   -0.586174
     5  C    0.265512
     6  C    0.265834
     7  O   -0.506525
     8  O   -0.506703
     9  O   -0.532391
    10  O   -0.532609
    11  Mg   1.053081
    12  Mg   1.164386
         Mulliken charges condensed to fragments:
      1     -0.113670
      2      0.113670
 Electronic spatial extent (au):  <R**2>=           2661.1930
 Charge=             -0.0000 electrons
 Dipole moment (field-independent basis, Debye):
    X=              1.1449    Y=             -0.0017    Z=              0.0000  Tot=              1.1449
 Quadrupole moment (field-independent basis, Debye-Ang):
   XX=             35.9467   YY=            -98.3607   ZZ=            -73.6462
   XY=             -0.0045   XZ=             -0.0000   YZ=             -0.0000
 Traceless Quadrupole moment (field-independent basis, Debye-Ang):
   XX=             81.3001   YY=            -53.0073   ZZ=            -28.2928
   XY=             -0.0045   XZ=             -0.0000   YZ=             -0.0000
 Octapole moment (field-independent basis, Debye-Ang**2):
  XXX=             38.0882  YYY=             -0.0132  ZZZ=             -0.0000  XYY=            -11.8546
  XXY=             -0.0400  XXZ=              0.0001  XZZ=             -8.3976  YZZ=             -0.0050
  YYZ=             -0.0000  XYZ=              0.0000
 Hexadecapole moment (field-independent basis, Debye-Ang**3):
 XXXX=            420.0582 YYYY=           -677.0690 ZZZZ=            -84.7086 XXXY=             -0.1111
 XXXZ=             -0.0003 YYYX=             -0.1063 YYYZ=              0.0000 ZZZX=              0.0000
 ZZZY=              0.0000 XXYY=           -688.7261 XXZZ=           -363.2578 YYZZ=           -129.2916
 XXYZ=             -0.0000 YYXZ=              0.0000 ZZXY=             -0.0180
 N-N= 7.719362159448D+02 E-N=-3.753544556587D+03  KE= 9.272447021081D+02
 Calling FoFJK, ICntrl=  10002127 FMM=F ISym2X=0 I1Cent= 0 IOpClX= 0 NMat=1 NMatS=1 NMatT=0.
 Cartesian Forces:  Max     0.000167277 RMS     0.000048899
 CPIOFr:  IOpCl= 0 IRwI=-1 IRwCP=  731 ICalc= -1 LCPTot=      142892 Len1MO=      375840 IndFrg=      142892
 CPIOFr:  IOpCl= 0 IRwI=-1 IRwCP=  731 ICalc=  0 LCPTot=      142892 Len1MO=      375840 IndFrg=      518732
 Counterpoise: doing calculation for fragment   1 using the basis set of the full-system, NewBq=T
 Basis read from rwf:  (5D, 7F)
   304 basis functions,   492 primitive gaussians,   316 cartesian basis functions
    47 alpha electrons       47 beta electrons
       nuclear repulsion energy       750.4916227205 Hartrees.
 NAtoms=   16 NActive=   16 NUniq=   16 SFac= 1.00D+00 NAtFMM=   60 NAOKFM=F Big=F
 Integral buffers will be    131072 words long.
 Raffenetti 1 integral format.
 Two-electron integral symmetry is turned off.
 One-electron integrals computed using PRISM.
 NBasis=   304 RedAO= T EigKep=  3.33D-06  NBF=   304
 NBsUse=   303 1.00D-06 EigRej=  8.94D-07 NBFU=   303
 ExpMin= 1.46D-02 ExpMax= 4.39D+04 ExpMxC= 1.51D+03 IAcc=3 IRadAn=         5 AccDes= 0.00D+00
 Harris functional with IExCor=  205 and IRadAn=       5 diagonalized for initial guess.
 HarFok:  IExCor=  205 AccDes= 0.00D+00 IRadAn=         5 IDoV= 1 UseB2=F ITyADJ=14
 ICtDFT=  3500011 ScaDFX=  1.000000  1.000000  1.000000  1.000000
 FoFCou: FMM=F IPFlag=           0 FMFlag=      100000 FMFlg1=           0
         NFxFlg=           0 DoJE=T BraDBF=F KetDBF=T FulRan=T
         wScrn=  0.000000 ICntrl=       500 IOpCl=  0 I1Cent=   200000004 NGrid=           0
         NMat0=    1 NMatS0=      1 NMatT0=    0 NMatD0=    1 NMtDS0=    0 NMtDT0=    0
 Symmetry not used in FoFCou.
 Requested convergence on RMS density matrix=1.00D-08 within 128 cycles.
 Requested convergence on MAX density matrix=1.00D-06.
 Requested convergence on             energy=1.00D-06.
 No special actions if energy rises.
 SCF Done:  E(RHF) =  -927.200487574     A.U. after   15 cycles
            NFock= 15  Conv=0.92D-08     -V/T= 2.0012
 ExpMin= 1.46D-02 ExpMax= 4.39D+04 ExpMxC= 1.51D+03 IAcc=3 IRadAn=         5 AccDes= 0.00D+00
 HarFok:  IExCor=  205 AccDes= 0.00D+00 IRadAn=         5 IDoV=-2 UseB2=F ITyADJ=14
 ICtDFT= 12500011 ScaDFX=  1.000000  1.000000  1.000000  1.000000
 Range of M.O.s used for correlation:    21   303
 NBasis=   304 NAE=    47 NBE=    47 NFC=    20 NFV=     0
 NROrb=    283 NOA=    27 NOB=    27 NVA=   256 NVB=   256

 **** Warning!!: The largest alpha MO coefficient is  0.10543422D+03

 Disk-based method using ON**2 memory for 27 occupieds at a time.
 Estimated scratch disk usage=  1634264239 words.
 Actual    scratch disk usage=  1372906671 words.
 JobTyp=1 Pass  1:  I=  21 to  47 NPSUse= 32 ParTrn=T ParDer=T DoDerP=T.
 (rs|ai) integrals will be sorted in core.
 Spin components of T(2) and E(2):
     alpha-alpha T2 =       0.7965978336D-01 E2=     -0.2352958977D+00
     alpha-beta  T2 =       0.3878835144D+00 E2=     -0.1202465958D+01
     beta-beta   T2 =       0.7965978336D-01 E2=     -0.2352958977D+00
 ANorm=    0.1243866183D+01
 E2 =    -0.1673057754D+01 EUMP2 =    -0.92887354532752D+03
          IDoAtm=1111111111111111
          Differentiating once with respect to electric field.
                with respect to dipole field.
          Differentiating once with respect to nuclear coordinates.
 Keep R1 ints in memory in canonical form, NReq=1090578710.
          There are     1 degrees of freedom in the 1st order CPHF.  IDoFFX=0 NUNeed=     1.
 LinEq1:  Iter=  0 NonCon=     1 RMS=4.31D-03 Max=1.23D-01 NDo=     1
 AX will form     1 AO Fock derivatives at one time.
 LinEq1:  Iter=  1 NonCon=     1 RMS=1.01D-03 Max=2.86D-02 NDo=     1
 LinEq1:  Iter=  2 NonCon=     1 RMS=4.54D-04 Max=9.74D-03 NDo=     1
 LinEq1:  Iter=  3 NonCon=     1 RMS=1.14D-04 Max=1.70D-03 NDo=     1
 LinEq1:  Iter=  4 NonCon=     1 RMS=4.79D-05 Max=1.51D-03 NDo=     1
 LinEq1:  Iter=  5 NonCon=     1 RMS=1.02D-05 Max=2.89D-04 NDo=     1
 LinEq1:  Iter=  6 NonCon=     1 RMS=2.92D-06 Max=7.25D-05 NDo=     1
 LinEq1:  Iter=  7 NonCon=     1 RMS=1.07D-06 Max=2.72D-05 NDo=     1
 LinEq1:  Iter=  8 NonCon=     1 RMS=3.59D-07 Max=1.13D-05 NDo=     1
 LinEq1:  Iter=  9 NonCon=     1 RMS=1.27D-07 Max=5.67D-06 NDo=     1
 LinEq1:  Iter= 10 NonCon=     1 RMS=5.01D-08 Max=2.35D-06 NDo=     1
 LinEq1:  Iter= 11 NonCon=     1 RMS=1.59D-08 Max=7.92D-07 NDo=     1
 LinEq1:  Iter= 12 NonCon=     1 RMS=5.04D-09 Max=2.18D-07 NDo=     1
 LinEq1:  Iter= 13 NonCon=     1 RMS=2.42D-09 Max=6.25D-08 NDo=     1
 LinEq1:  Iter= 14 NonCon=     1 RMS=6.62D-10 Max=1.17D-08 NDo=     1
 LinEq1:  Iter= 15 NonCon=     1 RMS=1.43D-10 Max=2.41D-09 NDo=     1
 LinEq1:  Iter= 16 NonCon=     0 RMS=3.58D-11 Max=8.49D-10 NDo=     1
 Linear equations converged to 1.000D-10 1.000D-09 after    16 iterations.
 End of Minotr F.D. properties file   721 does not exist.
 End of Minotr F.D. properties file   722 does not exist.
 End of Minotr F.D. properties file   788 does not exist.

 **********************************************************************

            Population analysis using the SCF Density.

 **********************************************************************

 Alpha  occ. eigenvalues --  -49.07667 -49.07445 -20.48159 -20.48158 -20.48158
 Alpha  occ. eigenvalues --  -20.48155 -11.22663 -11.22622 -11.22562 -11.22521
 Alpha  occ. eigenvalues --  -11.16370 -11.16368  -3.80841  -3.80640  -2.33122
 Alpha  occ. eigenvalues --   -2.33088  -2.32938  -2.32922  -2.32882  -2.32716
 Alpha  occ. eigenvalues --   -1.28659  -1.28047  -1.24972  -1.24684  -1.04192
 Alpha  occ. eigenvalues --   -0.92910  -0.88441  -0.76871  -0.71679  -0.63804
 Alpha  occ. eigenvalues --   -0.60663  -0.58004  -0.53888  -0.53329  -0.52274
 Alpha  occ. eigenvalues --   -0.52051  -0.49986  -0.49669  -0.45772  -0.44655
 Alpha  occ. eigenvalues --   -0.44051  -0.42217  -0.40179  -0.39710  -0.35115
 Alpha  occ. eigenvalues --   -0.24983  -0.19966
 Alpha virt. eigenvalues --   -0.04004  -0.03719   0.02495   0.02749   0.02933
 Alpha virt. eigenvalues --    0.02953   0.03427   0.03520   0.05420   0.06200
 Alpha virt. eigenvalues --    0.07519   0.08206   0.08648   0.09359   0.10769
 Alpha virt. eigenvalues --    0.11094   0.14373   0.14827   0.16992   0.17151
 Alpha virt. eigenvalues --    0.17486   0.18199   0.18839   0.18876   0.19044
 Alpha virt. eigenvalues --    0.19520   0.20864   0.21161   0.21481   0.22011
 Alpha virt. eigenvalues --    0.23032   0.23047   0.23246   0.23256   0.23396
 Alpha virt. eigenvalues --    0.23990   0.24008   0.26024   0.26930   0.28339
 Alpha virt. eigenvalues --    0.28555   0.28894   0.29700   0.30377   0.31885
 Alpha virt. eigenvalues --    0.32840   0.33190   0.34841   0.36712   0.37625
 Alpha virt. eigenvalues --    0.38707   0.39128   0.39506   0.40167   0.41263
 Alpha virt. eigenvalues --    0.41442   0.41615   0.43283   0.44658   0.45437
 Alpha virt. eigenvalues --    0.47031   0.47270   0.47746   0.48328   0.49233
 Alpha virt. eigenvalues --    0.50128   0.50166   0.50241   0.53127   0.54059
 Alpha virt. eigenvalues --    0.54749   0.54830   0.55154   0.55863   0.57842
 Alpha virt. eigenvalues --    0.58497   0.59895   0.59930   0.60844   0.62049
 Alpha virt. eigenvalues --    0.65346   0.66384   0.68233   0.69514   0.71278
 Alpha virt. eigenvalues --    0.73137   0.76911   0.77386   0.77700   0.79031
 Alpha virt. eigenvalues --    0.79598   0.81046   0.82696   0.82904   0.83068
 Alpha virt. eigenvalues --    0.85137   0.86823   0.89059   0.89957   0.90954
 Alpha virt. eigenvalues --    0.91871   0.91931   0.93244   0.94489   0.94633
 Alpha virt. eigenvalues --    0.97057   0.99468   1.00342   1.03089   1.04268
 Alpha virt. eigenvalues --    1.05774   1.09234   1.12208   1.17108   1.17340
 Alpha virt. eigenvalues --    1.19233   1.19701   1.24850   1.24895   1.28100
 Alpha virt. eigenvalues --    1.31083   1.31815   1.32592   1.34953   1.35161
 Alpha virt. eigenvalues --    1.41250   1.41558   1.43072   1.43678   1.50759
 Alpha virt. eigenvalues --    1.50991   1.52001   1.53139   1.53638   1.54464
 Alpha virt. eigenvalues --    1.55215   1.57485   1.58855   1.60475   1.62985
 Alpha virt. eigenvalues --    1.64767   1.70405   1.76536   1.81806   1.82808
 Alpha virt. eigenvalues --    1.89562   1.91526   1.91692   1.97757   2.00220
 Alpha virt. eigenvalues --    2.02767   2.05642   2.06954   2.07826   2.08631
 Alpha virt. eigenvalues --    2.16017   2.18295   2.19741   2.22472   2.25036
 Alpha virt. eigenvalues --    2.25235   2.26081   2.28281   2.28648   2.32682
 Alpha virt. eigenvalues --    2.34806   2.37261   2.40053   2.40824   2.41071
 Alpha virt. eigenvalues --    2.49842   2.52882   2.56860   2.64401   2.66849
 Alpha virt. eigenvalues --    2.72198   2.72226   2.80933   2.94734   3.02928
 Alpha virt. eigenvalues --    3.07119   3.08868   3.09051   3.13289   3.18317
 Alpha virt. eigenvalues --    3.19425   3.26982   3.29743   3.33638   3.36165
 Alpha virt. eigenvalues --    3.36284   3.38597   3.38934   3.44322   3.45367
 Alpha virt. eigenvalues --    3.46177   3.50722   3.51906   3.53382   3.53873
 Alpha virt. eigenvalues --    3.60990   3.63583   3.65499   3.66190   3.66328
 Alpha virt. eigenvalues --    3.67385   3.69289   3.71602   3.83291   3.84778
 Alpha virt. eigenvalues --    3.88471   3.92413   3.92743   3.94080   4.00495
 Alpha virt. eigenvalues --    4.11765   4.18356   4.22106   4.24318   4.62852
 Alpha virt. eigenvalues --    4.63750   4.68479   4.70656   4.73536   4.89103
 Alpha virt. eigenvalues --    5.31918   5.65050   5.67005   5.69363   5.70981
 Alpha virt. eigenvalues --    5.79096   5.81645   5.89705   5.91400   6.13425
 Alpha virt. eigenvalues --    6.32254   6.35544   6.37084   6.41422   6.41821
 Alpha virt. eigenvalues --    6.65312   6.67135   6.68456   6.74804  24.79400
 Alpha virt. eigenvalues --   25.06561  25.09605  25.15879  25.30423  25.36235
 Alpha virt. eigenvalues --   51.71026  51.74016  51.78617  51.80272 105.75963
 Alpha virt. eigenvalues --  105.86839
          Condensed to atoms (all electrons):
               1          2          3          4          5          6
     1  C   23.989119   4.398907 -11.704321  -2.091649 -11.712024   5.122468
     2  C    4.398907  27.107887 -13.936622 -11.696375  -3.539955   2.714053
     3  C  -11.704321 -13.936622  27.120759   4.410481   2.714837  -3.556480
     4  C   -2.091649 -11.696375   4.410481  23.985200   5.110135 -11.714847
     5  C  -11.712024  -3.539955   2.714837   5.110135  27.641623 -15.158543
     6  C    5.122468   2.714053  -3.556480 -11.714847 -15.158543  27.648768
     7  O   -1.009180  -0.041925   0.110849   0.144456   0.890185  -0.159467
     8  O    0.144518   0.110736  -0.042272  -1.009141  -0.159150   0.890161
     9  O    0.138271   0.805414  -0.065395  -0.974296  -0.058535   0.105112
    10  O   -0.974097  -0.064363   0.804923   0.138128   0.104976  -0.058851
    11  Mg   0.085838  -0.012234  -0.012213   0.085908  -0.165262  -0.164447
    12  Mg   0.016583  -0.132411  -0.132429   0.016212   0.032207   0.032201
    13  H    0.341359   0.013988   0.021547  -0.035796   0.021515   0.010809
    14  H   -0.035790   0.021551   0.014010   0.341343   0.010781   0.021533
    15  H    0.000104  -0.000350  -0.000355   0.000104   0.000006   0.000006
    16  H    0.000104  -0.000350  -0.000355   0.000104   0.000006   0.000006
               7          8          9         10         11         12
     1  C   -1.009180   0.144518   0.138271  -0.974097   0.085838   0.016583
     2  C   -0.041925   0.110736   0.805414  -0.064363  -0.012234  -0.132411
     3  C    0.110849  -0.042272  -0.065395   0.804923  -0.012213  -0.132429
     4  C    0.144456  -1.009141  -0.974296   0.138128   0.085908   0.016212
     5  C    0.890185  -0.159150  -0.058535   0.104976  -0.165262   0.032207
     6  C   -0.159467   0.890161   0.105112  -0.058851  -0.164447   0.032201
     7  O    8.391947  -0.009731   0.000071   0.000067   0.191599   0.001099
     8  O   -0.009731   8.392061   0.000066   0.000070   0.191719   0.001098
     9  O    0.000071   0.000066   8.379979  -0.006438   0.000678   0.193693
    10  O    0.000067   0.000070  -0.006438   8.379996   0.000678   0.193757
    11  Mg   0.191599   0.191719   0.000678   0.000678  10.742071  -0.002001
    12  Mg   0.001099   0.001098   0.193693   0.193757  -0.002001  10.658200
    13  H   -0.004193   0.000029   0.000013  -0.004181   0.001579   0.002262
    14  H    0.000030  -0.004182  -0.004196   0.000013   0.001577   0.002265
    15  H    0.000000   0.000000  -0.000004  -0.000005   0.000001  -0.000482
    16  H    0.000000   0.000000  -0.000004  -0.000005   0.000001  -0.000482
              13         14         15         16
     1  C    0.341359  -0.035790   0.000104   0.000104
     2  C    0.013988   0.021551  -0.000350  -0.000350
     3  C    0.021547   0.014010  -0.000355  -0.000355
     4  C   -0.035796   0.341343   0.000104   0.000104
     5  C    0.021515   0.010781   0.000006   0.000006
     6  C    0.010809   0.021533   0.000006   0.000006
     7  O   -0.004193   0.000030   0.000000   0.000000
     8  O    0.000029  -0.004182   0.000000   0.000000
     9  O    0.000013  -0.004196  -0.000004  -0.000004
    10  O   -0.004181   0.000013  -0.000005  -0.000005
    11  Mg   0.001579   0.001577   0.000001   0.000001
    12  Mg   0.002262   0.002265  -0.000482  -0.000482
    13  H    0.507559   0.000020   0.000000   0.000000
    14  H    0.000020   0.507562   0.000000   0.000000
    15  H    0.000000   0.000000   0.000207  -0.000011
    16  H    0.000000   0.000000  -0.000011   0.000207
 Mulliken charges:
               1
     1  C   -0.710210
     2  C    0.252048
     3  C    0.253035
     4  C   -0.709965
     5  C    0.267199
     6  C    0.267516
     7  O   -0.505806
     8  O   -0.505983
     9  O   -0.514430
    10  O   -0.514667
    11  Mg   1.054508
    12  Mg   1.118227
    13  H    0.123489
    14  H    0.123484
    15  H    0.000778
    16  H    0.000778
 Sum of Mulliken charges =  -0.00000
 Mulliken charges with hydrogens summed into heavy atoms:
               1
     1  C   -0.586721
     2  C    0.252048
     3  C    0.253035
     4  C   -0.586481
     5  C    0.267199
     6  C    0.267516
     7  O   -0.505806
     8  O   -0.505983
     9  O   -0.514430
    10  O   -0.514667
    11  Mg   1.054508
    12  Mg   1.119782
         Mulliken charges condensed to fragments:
      1     -0.001555
      2      0.001555
 Electronic spatial extent (au):  <R**2>=           2420.9308
 Charge=             -0.0000 electrons
 Dipole moment (field-independent basis, Debye):
    X=              0.2398    Y=             -0.0015    Z=              0.0000  Tot=              0.2398
 Quadrupole moment (field-independent basis, Debye-Ang):
   XX=             30.1030   YY=            -96.1424   ZZ=            -72.2566
   XY=             -0.0031   XZ=             -0.0000   YZ=             -0.0000
 Traceless Quadrupole moment (field-independent basis, Debye-Ang):
   XX=             76.2016   YY=            -50.0437   ZZ=            -26.1579
   XY=             -0.0031   XZ=             -0.0000   YZ=             -0.0000
 Octapole moment (field-independent basis, Debye-Ang**2):
  XXX=              7.8104  YYY=             -0.0159  ZZZ=             -0.0000  XYY=             -0.6304
  XXY=             -0.0317  XXZ=              0.0001  XZZ=             -0.9647  YZZ=             -0.0056
  YYZ=             -0.0000  XYZ=              0.0000
 Hexadecapole moment (field-independent basis, Debye-Ang**3):
 XXXX=            352.3349 YYYY=           -673.3255 ZZZZ=            -81.7817 XXXY=             -0.0672
 XXXZ=             -0.0003 YYYX=             -0.1218 YYYZ=              0.0000 ZZZX=              0.0000
 ZZZY=              0.0000 XXYY=           -623.6250 XXZZ=           -319.8635 YYZZ=           -128.2617
 XXYZ=             -0.0000 YYXZ=              0.0000 ZZXY=             -0.0214
 N-N= 7.504916227205D+02 E-N=-3.708267135278D+03  KE= 9.260983018211D+02
 Calling FoFJK, ICntrl=  10002127 FMM=F ISym2X=0 I1Cent= 0 IOpClX= 0 NMat=1 NMatS=1 NMatT=0.
 Cartesian Forces:  Max     0.002355438 RMS     0.000816198
 CPIOFr:  IOpCl= 0 IRwI=-1 IRwCP=  731 ICalc=  1 LCPTot=      142892 Len1MO=      375840 IndFrg=      894572
 Counterpoise: doing calculation for fragment   2 using the basis set of the full-system, NewBq=T
 Basis read from rwf:  (5D, 7F)
   304 basis functions,   492 primitive gaussians,   316 cartesian basis functions
     1 alpha electrons        1 beta electrons
       nuclear repulsion energy         0.7072462597 Hartrees.
 NAtoms=   16 NActive=   16 NUniq=   16 SFac= 1.00D+00 NAtFMM=   60 NAOKFM=F Big=F
 Integral buffers will be    131072 words long.
 Raffenetti 1 integral format.
 Two-electron integral symmetry is turned off.
 One-electron integrals computed using PRISM.
 NBasis=   304 RedAO= T EigKep=  3.33D-06  NBF=   304
 NBsUse=   303 1.00D-06 EigRej=  8.94D-07 NBFU=   303
 ExpMin= 1.46D-02 ExpMax= 4.39D+04 ExpMxC= 1.51D+03 IAcc=3 IRadAn=         5 AccDes= 0.00D+00
 Harris functional with IExCor=  205 and IRadAn=       5 diagonalized for initial guess.
 HarFok:  IExCor=  205 AccDes= 0.00D+00 IRadAn=         5 IDoV= 1 UseB2=F ITyADJ=14
 ICtDFT=  3500011 ScaDFX=  1.000000  1.000000  1.000000  1.000000
 FoFCou: FMM=F IPFlag=           0 FMFlag=      100000 FMFlg1=           0
         NFxFlg=           0 DoJE=T BraDBF=F KetDBF=T FulRan=T
         wScrn=  0.000000 ICntrl=       500 IOpCl=  0 I1Cent=   200000004 NGrid=           0
         NMat0=    1 NMatS0=      1 NMatT0=    0 NMatD0=    1 NMtDS0=    0 NMtDT0=    0
 Symmetry not used in FoFCou.
 Requested convergence on RMS density matrix=1.00D-08 within 128 cycles.
 Requested convergence on MAX density matrix=1.00D-06.
 Requested convergence on             energy=1.00D-06.
 No special actions if energy rises.
 SCF Done:  E(RHF) =  -1.13243878556     A.U. after    7 cycles
            NFock=  7  Conv=0.95D-09     -V/T= 2.0155
 Range of M.O.s used for correlation:     1   303
 NBasis=   304 NAE=     1 NBE=     1 NFC=     0 NFV=     0
 NROrb=    303 NOA=     1 NOB=     1 NVA=   302 NVB=   302

 **** Warning!!: The largest alpha MO coefficient is  0.10654194D+03

 Fully direct method using O(ONN) memory.
 JobTyp=1 Pass  1:  I=   1 to   1 NPSUse= 32 ParTrn=T ParDer=T DoDerP=T.
 Spin components of T(2) and E(2):
     alpha-alpha T2 =       0.0000000000D+00 E2=      0.0000000000D+00
     alpha-beta  T2 =       0.9572712269D-02 E2=     -0.2836223047D-01
     beta-beta   T2 =       0.0000000000D+00 E2=      0.0000000000D+00
 ANorm=    0.1004774956D+01
 E2 =    -0.2836223047D-01 EUMP2 =    -0.11608010160265D+01
          IDoAtm=1111111111111111
          Differentiating once with respect to electric field.
                with respect to dipole field.
          Differentiating once with respect to nuclear coordinates.
 Keep R1 ints in memory in canonical form, NReq=1090578730.
          There are     1 degrees of freedom in the 1st order CPHF.  IDoFFX=0 NUNeed=     1.
 LinEq1:  Iter=  0 NonCon=     1 RMS=9.29D-04 Max=7.99D-03 NDo=     1
 AX will form     1 AO Fock derivatives at one time.
 LinEq1:  Iter=  1 NonCon=     1 RMS=4.23D-05 Max=4.86D-04 NDo=     1
 LinEq1:  Iter=  2 NonCon=     1 RMS=2.62D-06 Max=2.23D-05 NDo=     1
 LinEq1:  Iter=  3 NonCon=     1 RMS=1.14D-07 Max=9.48D-07 NDo=     1
 LinEq1:  Iter=  4 NonCon=     1 RMS=5.03D-09 Max=3.38D-08 NDo=     1
 LinEq1:  Iter=  5 NonCon=     1 RMS=3.94D-10 Max=2.35D-09 NDo=     1
 LinEq1:  Iter=  6 NonCon=     0 RMS=3.17D-11 Max=1.87D-10 NDo=     1
 Linear equations converged to 1.000D-10 1.000D-09 after     6 iterations.
 End of Minotr F.D. properties file   721 does not exist.
 End of Minotr F.D. properties file   722 does not exist.
 End of Minotr F.D. properties file   788 does not exist.

 **********************************************************************

            Population analysis using the SCF Density.

 **********************************************************************

 Alpha  occ. eigenvalues --   -0.59214
 Alpha virt. eigenvalues --    0.01498   0.02438   0.02625   0.02687   0.03505
 Alpha virt. eigenvalues --    0.03569   0.03659   0.04870   0.07302   0.08344
 Alpha virt. eigenvalues --    0.08903   0.09971   0.10358   0.10608   0.10813
 Alpha virt. eigenvalues --    0.11142   0.11361   0.12242   0.12776   0.12882
 Alpha virt. eigenvalues --    0.14093   0.14682   0.15559   0.16691   0.17314
 Alpha virt. eigenvalues --    0.18001   0.19374   0.19557   0.20699   0.20765
 Alpha virt. eigenvalues --    0.20848   0.22145   0.23350   0.24143   0.24157
 Alpha virt. eigenvalues --    0.24690   0.25004   0.25947   0.26105   0.26335
 Alpha virt. eigenvalues --    0.27073   0.28883   0.29715   0.29744   0.30533
 Alpha virt. eigenvalues --    0.31887   0.31901   0.33716   0.34503   0.34641
 Alpha virt. eigenvalues --    0.34715   0.36318   0.36412   0.37386   0.37670
 Alpha virt. eigenvalues --    0.39529   0.39627   0.40925   0.42916   0.44101
 Alpha virt. eigenvalues --    0.44350   0.44642   0.45643   0.45775   0.47468
 Alpha virt. eigenvalues --    0.48072   0.48205   0.50257   0.50584   0.51314
 Alpha virt. eigenvalues --    0.52006   0.53573   0.55171   0.57038   0.59265
 Alpha virt. eigenvalues --    0.60816   0.63170   0.64902   0.67165   0.67930
 Alpha virt. eigenvalues --    0.68614   0.71502   0.72820   0.73888   0.73893
 Alpha virt. eigenvalues --    0.74455   0.74706   0.76717   0.77407   0.80538
 Alpha virt. eigenvalues --    0.81566   0.83244   0.84669   0.86074   0.86804
 Alpha virt. eigenvalues --    0.88700   0.91157   0.92550   0.94606   0.95844
 Alpha virt. eigenvalues --    0.97094   0.97353   0.97388   0.98360   0.99384
 Alpha virt. eigenvalues --    0.99553   1.01143   1.01306   1.03882   1.07703
 Alpha virt. eigenvalues --    1.09884   1.10242   1.11271   1.11409   1.15481
 Alpha virt. eigenvalues --    1.17119   1.23868   1.24430   1.24845   1.27645
 Alpha virt. eigenvalues --    1.27956   1.29690   1.31382   1.34428   1.37427
 Alpha virt. eigenvalues --    1.40767   1.42888   1.43738   1.45633   1.50967
 Alpha virt. eigenvalues --    1.53084   1.53217   1.53751   1.58528   1.61537
 Alpha virt. eigenvalues --    1.63148   1.71226   1.72354   1.73594   1.74425
 Alpha virt. eigenvalues --    1.80015   1.81421   1.81976   1.82275   1.84416
 Alpha virt. eigenvalues --    1.87612   1.90404   1.92738   1.96125   1.98546
 Alpha virt. eigenvalues --    1.98844   2.04619   2.06375   2.10045   2.11243
 Alpha virt. eigenvalues --    2.14974   2.15820   2.16158   2.19010   2.23345
 Alpha virt. eigenvalues --    2.28016   2.30693   2.31579   2.38664   2.44540
 Alpha virt. eigenvalues --    2.45265   2.48665   2.49454   2.58246   2.58608
 Alpha virt. eigenvalues --    2.59101   2.60410   2.67967   2.73275   2.76805
 Alpha virt. eigenvalues --    2.82688   2.83644   2.83680   2.85769   2.89971
 Alpha virt. eigenvalues --    2.92743   2.94115   2.96080   2.99935   3.00066
 Alpha virt. eigenvalues --    3.03838   3.08661   3.09578   3.10417   3.13100
 Alpha virt. eigenvalues --    3.14213   3.24537   3.25200   3.26525   3.31516
 Alpha virt. eigenvalues --    3.34081   3.34704   3.36088   3.37057   3.41109
 Alpha virt. eigenvalues --    3.47006   3.47751   3.53793   3.54874   3.55948
 Alpha virt. eigenvalues --    3.65050   3.76573   3.90396   4.04214   4.07753
 Alpha virt. eigenvalues --    4.22424   4.23232   4.24252   4.30822   4.37414
 Alpha virt. eigenvalues --    4.39498   4.42481   4.47034   4.60517   4.61632
 Alpha virt. eigenvalues --    4.62829   4.63526   4.80287   4.81750   4.85826
 Alpha virt. eigenvalues --    4.85863   4.86607   4.87159   4.90416   4.91237
 Alpha virt. eigenvalues --    4.92444   4.96508   5.01488   5.02452   5.19512
 Alpha virt. eigenvalues --    5.39783   5.59575   5.61171   5.73801   5.90526
 Alpha virt. eigenvalues --    7.01478   7.03525   7.07374   7.10514   7.15749
 Alpha virt. eigenvalues --    7.23461   7.24215   7.37245   7.73521   7.74863
 Alpha virt. eigenvalues --    7.78201   7.82763   7.83095   7.83559   8.04470
 Alpha virt. eigenvalues --    8.05284   8.14414   8.26118   8.33320   8.96693
 Alpha virt. eigenvalues --    9.67371  10.11095  10.17890  10.18986  10.27106
 Alpha virt. eigenvalues --   10.29152  13.48399  13.50396  13.52675  13.54217
 Alpha virt. eigenvalues --   13.65465  13.68686  13.76091  13.77081  13.95108
 Alpha virt. eigenvalues --   14.05129  14.09618  14.11051  18.51322  18.57206
 Alpha virt. eigenvalues --   18.65390  18.68036  24.88833  24.89617  25.10713
 Alpha virt. eigenvalues --   25.12144  25.12266  25.19270  41.99130  42.05375
 Alpha virt. eigenvalues --   69.74147  69.91284  69.95136  69.95511  70.02832
 Alpha virt. eigenvalues --   70.05399 139.78326 139.79251 139.80709 139.81350
 Alpha virt. eigenvalues --  308.90169 309.03180
          Condensed to atoms (all electrons):
               1          2          3          4          5          6
     1  C    0.007010  -0.007251  -0.003212   0.004236   0.000931   0.001654
     2  C   -0.007251   0.009164   0.002969  -0.003291  -0.001301  -0.002932
     3  C   -0.003212   0.002969   0.009229  -0.007291  -0.003001  -0.001295
     4  C    0.004236  -0.003291  -0.007291   0.007140   0.001692   0.000917
     5  C    0.000931  -0.001301  -0.003001   0.001692   0.001681   0.000768
     6  C    0.001654  -0.002932  -0.001295   0.000917   0.000768   0.001648
     7  O    0.000071  -0.000124  -0.000051   0.000034   0.000026   0.000058
     8  O    0.000034  -0.000051  -0.000125   0.000071   0.000059   0.000026
     9  O   -0.000144   0.000059  -0.000140  -0.000014   0.000037  -0.000008
    10  O   -0.000012  -0.000135   0.000055  -0.000145  -0.000009   0.000036
    11  Mg  -0.000127   0.000344   0.000345  -0.000125  -0.000282  -0.000283
    12  Mg  -0.003064   0.002499   0.002469  -0.003096  -0.000567  -0.000554
    13  H   -0.000061   0.000087   0.000012  -0.000017  -0.000006  -0.000031
    14  H   -0.000017   0.000013   0.000088  -0.000062  -0.000032  -0.000006
    15  H   -0.001232  -0.000553  -0.000624  -0.001252  -0.000033  -0.000031
    16  H   -0.001232  -0.000553  -0.000624  -0.001252  -0.000033  -0.000031
               7          8          9         10         11         12
     1  C    0.000071   0.000034  -0.000144  -0.000012  -0.000127  -0.003064
     2  C   -0.000124  -0.000051   0.000059  -0.000135   0.000344   0.002499
     3  C   -0.000051  -0.000125  -0.000140   0.000055   0.000345   0.002469
     4  C    0.000034   0.000071  -0.000014  -0.000145  -0.000125  -0.003096
     5  C    0.000026   0.000059   0.000037  -0.000009  -0.000282  -0.000567
     6  C    0.000058   0.000026  -0.000008   0.000036  -0.000283  -0.000554
     7  O    0.000007   0.000002   0.000000   0.000002  -0.000007  -0.000015
     8  O    0.000002   0.000007   0.000002   0.000000  -0.000007  -0.000015
     9  O    0.000000   0.000002   0.000044   0.000028  -0.000002   0.000102
    10  O    0.000002   0.000000   0.000028   0.000044  -0.000002   0.000102
    11  Mg  -0.000007  -0.000007  -0.000002  -0.000002   0.000083   0.000057
    12  Mg  -0.000015  -0.000015   0.000102   0.000102   0.000057   0.002340
    13  H   -0.000002  -0.000000   0.000000  -0.000002   0.000003   0.000015
    14  H   -0.000000  -0.000002  -0.000002   0.000000   0.000003   0.000015
    15  H   -0.000000  -0.000000   0.000700   0.000697   0.000009  -0.006358
    16  H   -0.000000  -0.000000   0.000700   0.000697   0.000009  -0.006358
              13         14         15         16
     1  C   -0.000061  -0.000017  -0.001232  -0.001232
     2  C    0.000087   0.000013  -0.000553  -0.000553
     3  C    0.000012   0.000088  -0.000624  -0.000624
     4  C   -0.000017  -0.000062  -0.001252  -0.001252
     5  C   -0.000006  -0.000032  -0.000033  -0.000033
     6  C   -0.000031  -0.000006  -0.000031  -0.000031
     7  O   -0.000002  -0.000000  -0.000000  -0.000000
     8  O   -0.000000  -0.000002  -0.000000  -0.000000
     9  O    0.000000  -0.000002   0.000700   0.000700
    10  O   -0.000002   0.000000   0.000697   0.000697
    11  Mg   0.000003   0.000003   0.000009   0.000009
    12  Mg   0.000015   0.000015  -0.006358  -0.006358
    13  H    0.000001   0.000000   0.000000   0.000000
    14  H    0.000000   0.000001   0.000000   0.000000
    15  H    0.000000   0.000000   0.590825   0.426328
    16  H    0.000000   0.000000   0.426328   0.590825
 Mulliken charges:
               1
     1  C    0.002417
     2  C    0.001057
     3  C    0.001196
     4  C    0.002455
     5  C    0.000069
     6  C    0.000066
     7  O    0.000000
     8  O    0.000000
     9  O   -0.001361
    10  O   -0.001355
    11  Mg  -0.000017
    12  Mg   0.012427
    13  H   -0.000001
    14  H   -0.000001
    15  H   -0.008476
    16  H   -0.008476
 Sum of Mulliken charges =  -0.00000
 Mulliken charges with hydrogens summed into heavy atoms:
               1
     1  C    0.002416
     2  C    0.001057
     3  C    0.001196
     4  C    0.002455
     5  C    0.000069
     6  C    0.000066
     7  O    0.000000
     8  O    0.000000
     9  O   -0.001361
    10  O   -0.001355
    11  Mg  -0.000017
    12  Mg  -0.004525
         Mulliken charges condensed to fragments:
      1      0.016952
      2     -0.016952
 Electronic spatial extent (au):  <R**2>=            246.0956
 Charge=             -0.0000 electrons
 Dipole moment (field-independent basis, Debye):
    X=              0.0039    Y=             -0.0000    Z=              0.0000  Tot=              0.0039
 Quadrupole moment (field-independent basis, Debye-Ang):
   XX=             -2.0564   YY=             -2.0805   ZZ=             -1.4734
   XY=             -0.0000   XZ=              0.0000   YZ=              0.0000
 Traceless Quadrupole moment (field-independent basis, Debye-Ang):
   XX=             -0.1863   YY=             -0.2104   ZZ=              0.3967
   XY=             -0.0000   XZ=              0.0000   YZ=              0.0000
 Octapole moment (field-independent basis, Debye-Ang**2):
  XXX=            -36.2245  YYY=              0.0031  ZZZ=              0.0000  XYY=            -12.0836
  XXY=              0.0009  XXZ=              0.0000  XZZ=             -8.5655  YZZ=              0.0007
  YYZ=              0.0000  XYZ=              0.0000
 Hexadecapole moment (field-independent basis, Debye-Ang**3):
 XXXX=           -424.4170 YYYY=             -2.0484 ZZZZ=             -2.8766 XXXY=              0.0178
 XXXZ=              0.0000 YYYX=              0.0182 YYYZ=              0.0000 ZZZX=              0.0000
 ZZZY=              0.0000 XXYY=            -70.8801 XXZZ=            -50.6464 YYZZ=             -0.8395
 XXYZ=              0.0000 YYXZ=              0.0000 ZZXY=              0.0043
 N-N= 7.072462596930D-01 E-N=-3.610211576102D+00  KE= 1.115127919597D+00
 Calling FoFJK, ICntrl=  10002127 FMM=F ISym2X=0 I1Cent= 0 IOpClX= 0 NMat=1 NMatS=1 NMatT=0.
 Cartesian Forces:  Max     0.006448957 RMS     0.001317044
 CPIOFr:  IOpCl= 0 IRwI=-1 IRwCP=  731 ICalc=  2 LCPTot=      142892 Len1MO=      375840 IndFrg=     1270412
 Counterpoise: doing calculation for fragment   1 using the basis set of the fragment.
 Basis read from rwf:  (5D, 7F)
   292 basis functions,   476 primitive gaussians,   304 cartesian basis functions
    47 alpha electrons       47 beta electrons
       nuclear repulsion energy       750.4916227205 Hartrees.
 NAtoms=   16 NActive=   14 NUniq=   14 SFac= 1.00D+00 NAtFMM=   60 NAOKFM=F Big=F
 Integral buffers will be    131072 words long.
 Raffenetti 1 integral format.
 Two-electron integral symmetry is turned off.
 One-electron integrals computed using PRISM.
 NBasis=   292 RedAO= T EigKep=  3.33D-06  NBF=   292
 NBsUse=   291 1.00D-06 EigRej=  8.94D-07 NBFU=   291
 ExpMin= 1.46D-02 ExpMax= 4.39D+04 ExpMxC= 1.51D+03 IAcc=3 IRadAn=         5 AccDes= 0.00D+00
 Harris functional with IExCor=  205 and IRadAn=       5 diagonalized for initial guess.
 HarFok:  IExCor=  205 AccDes= 0.00D+00 IRadAn=         5 IDoV= 1 UseB2=F ITyADJ=14
 ICtDFT=  3500011 ScaDFX=  1.000000  1.000000  1.000000  1.000000
 FoFCou: FMM=F IPFlag=           0 FMFlag=      100000 FMFlg1=           0
         NFxFlg=           0 DoJE=T BraDBF=F KetDBF=T FulRan=T
         wScrn=  0.000000 ICntrl=       500 IOpCl=  0 I1Cent=   200000004 NGrid=           0
         NMat0=    1 NMatS0=      1 NMatT0=    0 NMatD0=    1 NMtDS0=    0 NMtDT0=    0
 Symmetry not used in FoFCou.
 Requested convergence on RMS density matrix=1.00D-08 within 128 cycles.
 Requested convergence on MAX density matrix=1.00D-06.
 Requested convergence on             energy=1.00D-06.
 No special actions if energy rises.
 SCF Done:  E(RHF) =  -927.200309109     A.U. after   16 cycles
            NFock= 16  Conv=0.13D-08     -V/T= 2.0012
 ExpMin= 1.46D-02 ExpMax= 4.39D+04 ExpMxC= 1.51D+03 IAcc=3 IRadAn=         5 AccDes= 0.00D+00
 HarFok:  IExCor=  205 AccDes= 0.00D+00 IRadAn=         5 IDoV=-2 UseB2=F ITyADJ=14
 ICtDFT= 12500011 ScaDFX=  1.000000  1.000000  1.000000  1.000000
 Range of M.O.s used for correlation:    21   291
 NBasis=   292 NAE=    47 NBE=    47 NFC=    20 NFV=     0
 NROrb=    271 NOA=    27 NOB=    27 NVA=   244 NVB=   244

 **** Warning!!: The largest alpha MO coefficient is  0.10535684D+03

 Disk-based method using ON**2 memory for 27 occupieds at a time.
 Estimated scratch disk usage=  1488094165 words.
 Actual    scratch disk usage=  1250460629 words.
 JobTyp=1 Pass  1:  I=  21 to  47 NPSUse= 32 ParTrn=T ParDer=T DoDerP=T.
 (rs|ai) integrals will be sorted in core.
 Spin components of T(2) and E(2):
     alpha-alpha T2 =       0.7964447784D-01 E2=     -0.2352506344D+00
     alpha-beta  T2 =       0.3878256978D+00 E2=     -0.1202263914D+01
     beta-beta   T2 =       0.7964447784D-01 E2=     -0.2352506344D+00
 ANorm=    0.1243830637D+01
 E2 =    -0.1672765183D+01 EUMP2 =    -0.92887307429126D+03
          IDoAtm=1111111111111100
          Differentiating once with respect to electric field.
                with respect to dipole field.
          Differentiating once with respect to nuclear coordinates.
 Keep R1 ints in memory in canonical form, NReq=929189525.
          There are     1 degrees of freedom in the 1st order CPHF.  IDoFFX=0 NUNeed=     1.
 LinEq1:  Iter=  0 NonCon=     1 RMS=4.41D-03 Max=1.23D-01 NDo=     1
 AX will form     1 AO Fock derivatives at one time.
 LinEq1:  Iter=  1 NonCon=     1 RMS=1.03D-03 Max=2.86D-02 NDo=     1
 LinEq1:  Iter=  2 NonCon=     1 RMS=4.65D-04 Max=1.34D-02 NDo=     1
 LinEq1:  Iter=  3 NonCon=     1 RMS=1.17D-04 Max=2.18D-03 NDo=     1
 LinEq1:  Iter=  4 NonCon=     1 RMS=4.91D-05 Max=1.56D-03 NDo=     1
 LinEq1:  Iter=  5 NonCon=     1 RMS=1.05D-05 Max=2.91D-04 NDo=     1
 LinEq1:  Iter=  6 NonCon=     1 RMS=2.99D-06 Max=7.33D-05 NDo=     1
 LinEq1:  Iter=  7 NonCon=     1 RMS=1.10D-06 Max=2.76D-05 NDo=     1
 LinEq1:  Iter=  8 NonCon=     1 RMS=3.67D-07 Max=1.14D-05 NDo=     1
 LinEq1:  Iter=  9 NonCon=     1 RMS=1.30D-07 Max=5.75D-06 NDo=     1
 LinEq1:  Iter= 10 NonCon=     1 RMS=5.14D-08 Max=2.37D-06 NDo=     1
 LinEq1:  Iter= 11 NonCon=     1 RMS=1.63D-08 Max=7.99D-07 NDo=     1
 LinEq1:  Iter= 12 NonCon=     1 RMS=5.19D-09 Max=2.15D-07 NDo=     1
 LinEq1:  Iter= 13 NonCon=     1 RMS=2.49D-09 Max=6.51D-08 NDo=     1
 LinEq1:  Iter= 14 NonCon=     1 RMS=6.76D-10 Max=1.59D-08 NDo=     1
 LinEq1:  Iter= 15 NonCon=     1 RMS=1.46D-10 Max=2.44D-09 NDo=     1
 LinEq1:  Iter= 16 NonCon=     0 RMS=3.66D-11 Max=8.53D-10 NDo=     1
 Linear equations converged to 1.000D-10 1.000D-09 after    16 iterations.
 End of Minotr F.D. properties file   721 does not exist.
 End of Minotr F.D. properties file   722 does not exist.
 End of Minotr F.D. properties file   788 does not exist.

 **********************************************************************

            Population analysis using the SCF Density.

 **********************************************************************

 Alpha  occ. eigenvalues --  -49.07678 -49.07445 -20.48161 -20.48160 -20.48158
 Alpha  occ. eigenvalues --  -20.48156 -11.22664 -11.22623 -11.22563 -11.22523
 Alpha  occ. eigenvalues --  -11.16371 -11.16369  -3.80854  -3.80641  -2.33135
 Alpha  occ. eigenvalues --   -2.33098  -2.32938  -2.32933  -2.32883  -2.32717
 Alpha  occ. eigenvalues --   -1.28661  -1.28049  -1.24976  -1.24686  -1.04193
 Alpha  occ. eigenvalues --   -0.92911  -0.88443  -0.76872  -0.71680  -0.63804
 Alpha  occ. eigenvalues --   -0.60664  -0.58006  -0.53889  -0.53330  -0.52276
 Alpha  occ. eigenvalues --   -0.52052  -0.49987  -0.49671  -0.45773  -0.44657
 Alpha  occ. eigenvalues --   -0.44053  -0.42220  -0.40180  -0.39711  -0.35116
 Alpha  occ. eigenvalues --   -0.24984  -0.19968
 Alpha virt. eigenvalues --   -0.03989  -0.03718   0.02567   0.02846   0.02935
 Alpha virt. eigenvalues --    0.02974   0.03427   0.03520   0.05440   0.06221
 Alpha virt. eigenvalues --    0.07595   0.08253   0.08648   0.09359   0.10848
 Alpha virt. eigenvalues --    0.11196   0.14377   0.14827   0.17027   0.17486
 Alpha virt. eigenvalues --    0.17905   0.18526   0.19044   0.19310   0.19550
 Alpha virt. eigenvalues --    0.19737   0.21161   0.21482   0.22237   0.22533
 Alpha virt. eigenvalues --    0.23033   0.23246   0.23256   0.23495   0.23864
 Alpha virt. eigenvalues --    0.23989   0.24036   0.26904   0.28339   0.28901
 Alpha virt. eigenvalues --    0.29574   0.30314   0.31885   0.32840   0.33196
 Alpha virt. eigenvalues --    0.34157   0.35557   0.37628   0.38529   0.38708
 Alpha virt. eigenvalues --    0.38727   0.39128   0.40000   0.41444   0.41499
 Alpha virt. eigenvalues --    0.43286   0.43364   0.45462   0.46867   0.47045
 Alpha virt. eigenvalues --    0.47460   0.48328   0.49153   0.49238   0.50119
 Alpha virt. eigenvalues --    0.50167   0.52694   0.53440   0.54749   0.54837
 Alpha virt. eigenvalues --    0.55170   0.55576   0.57849   0.58316   0.59941
 Alpha virt. eigenvalues --    0.60148   0.60845   0.62176   0.65367   0.65584
 Alpha virt. eigenvalues --    0.68726   0.69291   0.73137   0.73411   0.76922
 Alpha virt. eigenvalues --    0.77400   0.77641   0.78743   0.79611   0.81648
 Alpha virt. eigenvalues --    0.82909   0.83068   0.84609   0.85347   0.86089
 Alpha virt. eigenvalues --    0.90930   0.90954   0.91948   0.93595   0.94182
 Alpha virt. eigenvalues --    0.94730   0.97057   0.99341   0.99488   1.02948
 Alpha virt. eigenvalues --    1.04273   1.05780   1.08632   1.12208   1.16668
 Alpha virt. eigenvalues --    1.17108   1.19102   1.19699   1.24384   1.24944
 Alpha virt. eigenvalues --    1.28159   1.29640   1.31780   1.32591   1.34480
 Alpha virt. eigenvalues --    1.34962   1.40997   1.41560   1.42706   1.43688
 Alpha virt. eigenvalues --    1.50029   1.51126   1.52388   1.52853   1.53654
 Alpha virt. eigenvalues --    1.54351   1.55664   1.57454   1.58761   1.60482
 Alpha virt. eigenvalues --    1.62953   1.70335   1.71108   1.81927   1.82862
 Alpha virt. eigenvalues --    1.89459   1.91688   1.91738   2.00221   2.01481
 Alpha virt. eigenvalues --    2.05085   2.06948   2.07832   2.08254   2.15966
 Alpha virt. eigenvalues --    2.18289   2.19746   2.22527   2.24369   2.27905
 Alpha virt. eigenvalues --    2.29007   2.34647   2.37004   2.39496   2.40818
 Alpha virt. eigenvalues --    2.41028   2.49789   2.52683   2.56765   2.64391
 Alpha virt. eigenvalues --    2.66612   2.72144   2.80711   2.94730   3.02914
 Alpha virt. eigenvalues --    3.06855   3.08865   3.08966   3.12748   3.18265
 Alpha virt. eigenvalues --    3.19417   3.26979   3.29270   3.33352   3.36143
 Alpha virt. eigenvalues --    3.36272   3.38568   3.38793   3.44284   3.45355
 Alpha virt. eigenvalues --    3.46081   3.50714   3.51710   3.53381   3.53795
 Alpha virt. eigenvalues --    3.60879   3.63327   3.65496   3.66125   3.66327
 Alpha virt. eigenvalues --    3.67384   3.69134   3.71506   3.83287   3.84982
 Alpha virt. eigenvalues --    3.88963   3.92375   3.93744   3.94070   4.00469
 Alpha virt. eigenvalues --    4.11758   4.18828   4.23318   4.61832   4.63738
 Alpha virt. eigenvalues --    4.68468   4.70647   4.72654   5.31916   5.64649
 Alpha virt. eigenvalues --    5.66803   5.69356   5.70972   5.78881   5.81161
 Alpha virt. eigenvalues --    5.89659   5.91268   6.13119   6.31912   6.35477
 Alpha virt. eigenvalues --    6.36878   6.41203   6.41412   6.64897   6.66807
 Alpha virt. eigenvalues --    6.67707   6.69059  24.79026  25.06559  25.09373
 Alpha virt. eigenvalues --   25.15877  25.30375  25.36227  51.70881  51.73897
 Alpha virt. eigenvalues --   51.78571  51.80238 105.74101 105.84265
          Condensed to atoms (all electrons):
               1          2          3          4          5          6
     1  C   24.037830   4.489892 -11.624986  -2.045719 -11.816427   4.962580
     2  C    4.489892  26.959710 -13.998818 -11.616541  -3.522273   2.743850
     3  C  -11.624986 -13.998818  26.972936   4.501826   2.744279  -3.539169
     4  C   -2.045719 -11.616541   4.501826  24.033743   4.949747 -11.819425
     5  C  -11.816427  -3.522273   2.744279   4.949747  27.769756 -15.068355
     6  C    4.962580   2.743850  -3.539169 -11.819425 -15.068355  27.776532
     7  O   -1.008524  -0.045846   0.109052   0.144476   0.891206  -0.156415
     8  O    0.144538   0.108936  -0.046200  -1.008498  -0.156088   0.891193
     9  O    0.127603   0.807842  -0.067042  -0.990528  -0.050805   0.109596
    10  O   -0.990329  -0.065942   0.807291   0.127444   0.109451  -0.051146
    11  Mg   0.061837  -0.006630  -0.006638   0.061850  -0.151730  -0.150893
    12  Mg   0.059548  -0.153391  -0.152902   0.059205  -0.000643  -0.000605
    13  H    0.340678   0.012163   0.020920  -0.036006   0.022389   0.013584
    14  H   -0.035997   0.020921   0.012173   0.340669   0.013562   0.022409
               7          8          9         10         11         12
     1  C   -1.008524   0.144538   0.127603  -0.990329   0.061837   0.059548
     2  C   -0.045846   0.108936   0.807842  -0.065942  -0.006630  -0.153391
     3  C    0.109052  -0.046200  -0.067042   0.807291  -0.006638  -0.152902
     4  C    0.144476  -1.008498  -0.990528   0.127444   0.061850   0.059205
     5  C    0.891206  -0.156088  -0.050805   0.109451  -0.151730  -0.000643
     6  C   -0.156415   0.891193   0.109596  -0.051146  -0.150893  -0.000605
     7  O    8.391919  -0.009697   0.000071   0.000064   0.192910   0.000846
     8  O   -0.009697   8.392034   0.000064   0.000070   0.193031   0.000845
     9  O    0.000071   0.000064   8.384808  -0.005852   0.000876   0.195834
    10  O    0.000064   0.000070  -0.005852   8.384817   0.000876   0.195942
    11  Mg   0.192910   0.193031   0.000876   0.000876  10.747681  -0.002055
    12  Mg   0.000846   0.000845   0.195834   0.195942  -0.002055  10.728111
    13  H   -0.004206   0.000029   0.000047  -0.004086   0.001744   0.001690
    14  H    0.000029  -0.004195  -0.004100   0.000046   0.001742   0.001691
              13         14
     1  C    0.340678  -0.035997
     2  C    0.012163   0.020921
     3  C    0.020920   0.012173
     4  C   -0.036006   0.340669
     5  C    0.022389   0.013562
     6  C    0.013584   0.022409
     7  O   -0.004206   0.000029
     8  O    0.000029  -0.004195
     9  O    0.000047  -0.004100
    10  O   -0.004086   0.000046
    11  Mg   0.001744   0.001742
    12  Mg   0.001690   0.001691
    13  H    0.507584   0.000020
    14  H    0.000020   0.507587
 Mulliken charges:
               1
     1  C   -0.702524
     2  C    0.266127
     3  C    0.267277
     4  C   -0.702241
     5  C    0.265931
     6  C    0.266265
     7  O   -0.505886
     8  O   -0.506063
     9  O   -0.508413
    10  O   -0.508647
    11  Mg   1.055400
    12  Mg   1.065884
    13  H    0.123447
    14  H    0.123443
    15  H    0.000000
    16  H    0.000000
 Sum of Mulliken charges =  -0.00000
 Mulliken charges with hydrogens summed into heavy atoms:
               1
     1  C   -0.579077
     2  C    0.266127
     3  C    0.267277
     4  C   -0.578799
     5  C    0.265931
     6  C    0.266265
     7  O   -0.505886
     8  O   -0.506063
     9  O   -0.508413
    10  O   -0.508647
    11  Mg   1.055400
    12  Mg   1.065884
         Mulliken charges condensed to fragments:
      1     -0.000000
      2      0.000000
 Electronic spatial extent (au):  <R**2>=           2420.9345
 Charge=             -0.0000 electrons
 Dipole moment (field-independent basis, Debye):
    X=              0.2391    Y=             -0.0015    Z=              0.0000  Tot=              0.2392
 Quadrupole moment (field-independent basis, Debye-Ang):
[...]


 ----------------------------------------------------------------------

 Electric dipole moment (input orientation):
 (Debye = 10**-18 statcoulomb cm , SI units = C m)
                  (au)            (Debye)         (10**-30 SI)
   Tot        0.452046D+00      0.114899D+01      0.383261D+01
   x          0.452046D+00      0.114899D+01      0.383261D+01
   y         -0.402972D-04     -0.102425D-03     -0.341654D-03
   z          0.349857D-04      0.889247D-04      0.296621D-03

 Dipole polarizability, Alpha (input orientation).
 (esu units = cm**3 , SI units = C**2 m**2 J**-1)
 Alpha(0;0):
               (au)            (10**-24 esu)      (10**-40 SI)
   iso        0.143881D+03      0.213210D+02      0.237228D+02
   aniso      0.126439D+03      0.187363D+02      0.208470D+02
   xx         0.227628D+03      0.337310D+02      0.375308D+02
   yx        -0.135033D-02     -0.200098D-03     -0.222639D-03
   yy         0.110298D+03      0.163445D+02      0.181857D+02
   zx        -0.280571D-02     -0.415764D-03     -0.462600D-03
   zy         0.000000D+00      0.000000D+00      0.000000D+00
   zz         0.937170D+02      0.138874D+02      0.154519D+02

 ----------------------------------------------------------------------

 Dipole orientation:
     6          0.00023857          2.63887342          0.01671634
     6          0.00030227          1.35413769          2.33112329
     6          0.00006082         -1.35401543          2.33128578
     6         -0.00023191         -2.63884366          0.01696459
     6         -0.00029272         -1.35423212         -2.29701617
     6         -0.00005134          1.35391159         -2.29726534
     8         -0.00010258          2.70911736         -4.53604768
     8         -0.00058560         -2.71000263         -4.53566971
     8          0.00011442         -2.68637528          4.57275997
     8          0.00059341          2.68679515          4.57261551
    12         -0.00055423         -0.00063383         -6.80009100
    12          0.00053056          0.00035187          6.87058484
     1          0.00042101          4.69293364          0.01531415
     1         -0.00041568         -4.69289205          0.01528064
     1         -0.70526679          0.00149534         11.02722334
     1          0.70696637          0.00136947         11.02711491

 Electric dipole moment (dipole orientation):
 (Debye = 10**-18 statcoulomb cm , SI units = C m)
                  (au)            (Debye)         (10**-30 SI)
   Tot        0.452046D+00      0.114899D+01      0.383261D+01
   x          0.000000D+00      0.000000D+00      0.000000D+00
   y          0.000000D+00      0.000000D+00      0.000000D+00
   z          0.452046D+00      0.114899D+01      0.383261D+01

 Dipole polarizability, Alpha (dipole orientation).
 (esu units = cm**3 , SI units = C**2 m**2 J**-1)
 Alpha(0;0):
               (au)            (10**-24 esu)      (10**-40 SI)
   iso        0.143881D+03      0.213210D+02      0.237228D+02
   aniso      0.126439D+03      0.187363D+02      0.208470D+02
   xx         0.937170D+02      0.138874D+02      0.154519D+02
   yx         0.147938D-02      0.219221D-03      0.243916D-03
   yy         0.110298D+03      0.163445D+02      0.181857D+02
   zx         0.131705D-01      0.195166D-02      0.217152D-02
   zy         0.910782D-02      0.134964D-02      0.150168D-02
   zz         0.227628D+03      0.337310D+02      0.375308D+02

 ----------------------------------------------------------------------
 1\1\GINC-SG14\Freq\RMP2-FC\6-311+G(d,p)\C6H4Mg2O4\YUC\13-Sep-2024\0\\#
 N Geom=AllCheck Guess=TCheck SCRF=Check GenChk RMP2(FC)/6-311+G(d,p) F
 req\\two\\0,1\C,0.0089703899,1.3964308903,-0.0000010771\C,1.2336411965
 ,0.7164688485,-0.0000006065\C,1.2335994343,-0.7166240747,-0.0000005795
 \C,0.0088527919,-1.3964167282,-0.000001065\C,-1.2155924895,-0.71652042
 87,-0.0000030554\C,-1.2155965982,0.7165675194,-0.0000030469\O,-2.40024
 5259,1.4338171313,-0.0000036951\O,-2.4003008825,-1.4338576857,-0.00000
 37117\O,2.4196736392,-1.4217842747,0.0000000073\O,2.4198506647,1.42157
 50739,-0.0000000004\Mg,-3.5984532194,-0.0000146559,0.0000147591\Mg,3.6
 35756934,-0.0001378818,0.0000006447\H,0.0083252775,2.4833928108,-0.000
 0007819\H,0.0078647906,-2.4833722472,-0.0000007848\H,5.8353264354,0.00
 02378456,0.3736628012\H,5.8353268947,0.0002378571,-0.373658808\\Versio
 n=ES64L-G16RevB.01\HF=-1.1323926\MP2=-1.1602171\RMSD=0.000e+00\RMSF=2.
 544e-05\ZeroPoint=0.0838423\Thermal=0.0947999\Dipole=0.4520459,-0.0000
 403,0.000035\DipoleDeriv=0.0027022,-0.0081011,-0.0000099,0.0115232,0.0
 139948,-0.0000023,0.0000316,-0.0000015,-0.3467998,0.6864824,0.4299063,
 0.0000002,1.0579692,0.2455001,-0.0000227,0.0000035,-0.0000006,-0.02202
 01,0.6865212,-0.4301211,0.0000002,-1.0581204,0.2456787,0.0000227,0.000
 0035,0.0000007,-0.0220347,0.0026984,0.0082988,-0.0000099,-0.0116731,0.
 0139992,0.0000023,0.0000316,0.0000015,-0.3467955,0.7173778,0.3994615,0
 .0000227,1.3250549,0.2445585,0.0000243,-0.0000211,-0.0000009,0.021951,
 0.7176671,-0.3996205,0.0000227,-1.3250916,0.244629,-0.0000243,-0.00002
 11,0.0000009,0.0218819,-1.547688,0.4951119,-0.0000362,0.8708475,-0.745
 5728,0.0000144,-0.0000354,0.0000016,-0.3698176,-1.5473689,-0.4950011,-
 0.0000362,-0.8707592,-0.7455086,-0.0000144,-0.0000354,-0.0000016,-0.36
 99027,-1.4854477,0.5042292,0.0000098,0.6420873,-0.7537259,-0.0000063,-
 0.000006,-0.0000001,-0.4589434,-1.4854205,-0.5040894,0.0000098,-0.6418
 886,-0.7535735,0.0000063,-0.000006,0.0000001,-0.4590122,1.5334089,0.00
 00097,0.0000321,0.0000687,1.0566204,0.,0.0000528,0.,0.9758583,1.649539
 ,0.0000177,-0.0000053,0.0000373,1.0145021,0.,-0.0000002,0.,0.9817312,0
 .0776526,0.0002733,0.,0.0027413,-0.0764855,0.0000006,0.0000012,0.00000
 01,0.1277745,0.0776663,-0.0003489,0.,-0.0027596,-0.0764922,-0.0000006,
 0.0000011,-0.0000001,0.1277653,-0.0428955,-0.0000131,0.0916451,-0.0000
 184,0.0359379,0.0000265,0.0815978,0.0000293,0.0691817,-0.0428954,-0.00
 00131,-0.091645,-0.0000184,0.0359379,-0.0000265,-0.0815978,-0.0000293,
 0.0691821\Polar=227.6282874,-0.0013503,110.2978368,-0.0028057,-0.00000
 03,93.7170465\PG=C01 [X(C6H4Mg2O4)]\NImag=3\\0.70399344,-0.00037152,0.
 72370484,0.00000049,0.00000038,0.03789135,-0.27405266,0.13215835,-0.00
 000009,0.67762989,0.08837305,-0.17613374,-0.00000036,-0.06090679,0.597
 03532,-0.00000008,-0.00000008,0.00057671,0.00000025,0.00000003,0.07733
 893,0.01671772,0.02419902,0.00000003,-0.09974007,0.02838642,0.,0.67777
 563,0.04478841,-0.01726952,0.00000026,-0.02838169,-0.25423917,0.000000
 12,0.06077848,0.59704704,-0.00000004,0.00000005,-0.03399813,0.,-0.0000
 0011,-0.02219701,0.00000025,-0.00000003,0.07732412,-0.02994913,-0.0003
 2761,-0.00000021,0.01670302,-0.04479840,-0.00000003,-0.27410731,-0.088
 37455,-0.00000009,0.70418113,0.00032805,-0.00361827,0.00000009,-0.0242
 0921,-0.01727236,-0.00000005,-0.13215609,-0.17611234,0.00000008,0.0003
 5844,0.72374220,-0.00000021,-0.00000009,0.03355381,0.00000003,-0.00000
 026,-0.03400104,-0.00000010,0.00000036,0.00058271,0.00000050,-0.000000
 38,0.03785979,0.01620046,-0.02382757,0.00000029,-0.00879965,0.01565230
 ,0.00000007,-0.04465874,-0.01240800,-0.00000008,-0.27442456,0.13278228
 ,-0.00000002,0.67109363,-0.04614502,-0.01777382,0.00000028,0.01674563,
 -0.03787786,0.00000003,0.01363524,0.04900684,0.00000001,0.08790795,-0.
 17440986,0.00000049,-0.06428371,0.59174000,0.00000023,0.00000009,-0.03
 274044,-0.00000004,0.00000025,0.03342117,-0.00000004,-0.00000039,-0.03
 793880,-0.00000033,0.00000034,0.00167515,0.00000005,-0.00000024,0.0749
 9335,-0.27429487,-0.13267877,-0.00000001,-0.04466719,0.01242362,-0.000
 00007,-0.00878831,-0.01562953,0.00000007,0.01622532,0.02382813,0.00000
 029,-0.10073381,0.02984645,-0.00000024,0.67106816,-0.08781445,-0.17436
 572,-0.00000049,-0.01361607,0.04903381,0.,-0.01673284,-0.03786166,-0.0
 0000003,0.04615704,-0.01777513,-0.00000028,-0.02985014,-0.25396900,0.0
 0000028,0.06404619,0.59167135,-0.00000032,-0.00000034,0.00165561,-0.00
 000004,0.00000039,-0.03793272,-0.00000004,-0.00000025,0.03342729,0.000
 00023,-0.00000008,-0.03273086,-0.00000024,-0.00000028,-0.02213635,0.00
 000004,0.00000024,0.07499108,-0.05134702,0.02906613,-0.00000045,0.0027
 5282,-0.00392651,0.,0.00157242,-0.00155900,-0.00000007,0.00133782,0.00
 290332,-0.00000046,-0.02646619,0.00840777,0.00000043,-0.20885188,0.076
 68728,0.00000011,0.33064734,-0.00927243,0.01208401,0.00000004,-0.00035
 174,-0.00589565,0.00000003,-0.00098184,0.00431574,0.00000002,-0.005295
 74,-0.00716699,0.00000015,0.04218697,-0.02671886,-0.00000013,0.0742746
 2,-0.11914561,0.00000015,-0.03945310,0.22975486,0.00000011,0.00000010,
 0.00321203,-0.00000002,0.00000021,0.00755789,0.00000003,-0.00000023,-0
 .00313770,0.00000006,0.,0.00913322,-0.00000023,-0.00000036,0.00345629,
 -0.00000046,0.00000041,-0.03571874,-0.00000024,-0.00000146,0.02291420,
 0.00133738,-0.00290380,-0.00000046,0.00157124,0.00155649,-0.00000007,0
 .00275488,0.00392806,0.,-0.05135490,-0.02906628,-0.00000045,-0.2087156
 5,-0.07660017,0.00000011,-0.02646287,-0.00839860,0.00000043,0.01420015
 ,0.00437404,0.00000041,0.33051983,0.00529320,-0.00716635,-0.00000015,0
 .00098234,0.00431361,-0.00000002,0.00035243,-0.00589299,-0.00000003,0.
 00926995,0.01207811,-0.00000004,-0.07418951,-0.11909905,-0.00000015,-0
 .04217296,-0.02670962,0.00000013,-0.00437506,0.00624349,0.00000016,0.0
 3934545,0.22971777,0.00000006,0.,0.00913186,0.00000003,0.00000023,-0.0
 0313835,-0.00000002,-0.00000021,0.00755834,0.00000011,-0.00000010,0.00
 321187,-0.00000046,-0.00000041,-0.03572966,-0.00000024,0.00000036,0.00
 345345,0.00000041,-0.00000016,-0.00186456,-0.00000024,0.00000147,0.022
 92884,0.00088130,0.00268733,0.00000013,-0.02761732,0.01046764,-0.00000
 002,-0.21569950,0.08001761,-0.00000003,-0.05213498,0.02843154,0.000000
 06,0.00307394,-0.00449560,-0.00000007,0.00190790,-0.00081136,-0.000000
 11,-0.00521666,0.00340671,-0.00000012,-0.00600707,-0.00150488,-0.00000
 010,0.34062337,-0.00441882,-0.00711453,-0.00000008,0.04023002,-0.02894
 797,0.,0.07673032,-0.12102408,0.00000002,-0.00931786,0.01307904,-0.000
 00009,-0.00052230,-0.00526786,0.00000009,-0.00120607,0.00358981,0.0000
 0006,0.00307003,-0.00119694,0.00000008,0.00118314,0.00221940,0.0000000
 6,-0.04260648,0.22958574,0.00000003,0.,0.00801358,-0.00000003,0.000000
 07,0.00475554,-0.00000007,0.00000001,-0.03619620,-0.00000002,-0.000000
 02,0.00188231,-0.00000004,-0.00000006,0.00755518,-0.00000006,0.0000000
 7,-0.00353127,0.00000008,-0.00000003,-0.00038906,0.00000007,0.00000003
 ,0.00023686,0.00000012,0.,0.02589918,-0.05212711,-0.02842308,0.0000000
 6,-0.21558315,-0.07993015,-0.00000003,-0.02762353,-0.01046133,-0.00000
 002,0.00088352,-0.00268855,0.00000013,0.00190659,0.00081187,-0.0000001
 1,0.00307509,0.00449519,-0.00000007,-0.00600784,0.00150448,-0.00000010
 ,-0.00521448,-0.00340614,-0.00000012,0.01464320,0.00708525,-0.00000001
 ,0.34051128,0.00932158,0.01307605,0.00000009,-0.07664015,-0.12096692,-
 0.00000002,-0.04022097,-0.02893652,0.,0.00441667,-0.00711512,0.0000000
 8,0.00120588,0.00358841,-0.00000006,0.00052302,-0.00526677,-0.00000009
 ,-0.00118311,0.00221925,-0.00000006,-0.00306824,-0.00119601,-0.0000000
 8,-0.00708749,0.00665548,-0.00000002,0.04248077,0.22955829,-0.00000002
 ,0.00000002,0.00188035,-0.00000007,-0.00000001,-0.03620631,-0.00000003
 ,-0.00000006,0.00475303,0.00000003,0.,0.00801355,-0.00000006,-0.000000
 07,-0.00353172,-0.00000004,0.00000006,0.00755420,0.00000007,-0.0000000
 3,0.00023695,0.00000008,0.00000003,-0.00038880,-0.00000001,0.00000002,
 -0.00013230,0.00000013,0.,0.02591030,-0.00190454,0.00321875,0.00000032
 ,-0.00135979,-0.00155512,0.00000002,-0.00135990,0.00155547,0.00000002,
 -0.00190577,-0.00321826,0.00000032,-0.02557485,0.00956099,-0.00000003,
 -0.02557640,-0.00956007,-0.00000003,-0.05683033,-0.07227320,0.00000052
 ,-0.05683667,0.07228389,0.00000052,0.00198118,-0.00111693,-0.00000006,
 0.00198098,0.00111649,-0.00000006,0.16684294,0.00241133,-0.00114777,0.
 00000002,-0.00052739,0.00031038,-0.00000003,0.00052730,0.00031153,0.00
 000003,-0.00241107,-0.00114860,-0.00000002,0.02107234,0.00160706,-0.00
 000008,-0.02107580,0.00160878,0.00000008,-0.07144023,-0.09462979,0.000
 00115,0.07145458,-0.09464626,-0.00000115,0.00042968,-0.00052974,0.,-0.
 00042921,-0.00052931,0.,-0.00001150,0.18906907,-0.00000024,-0.00000006
 ,-0.00407237,0.00000002,-0.00000046,0.00030448,0.00000002,0.00000046,0
 .00030383,-0.00000024,0.00000006,-0.00407249,0.00000074,0.00000050,0.0
 0519026,0.00000074,-0.00000050,0.00518829,0.00000016,0.00000141,-0.001
 81586,0.00000016,-0.00000141,-0.00181478,0.00000018,-0.00000012,0.0003
 1474,0.00000018,0.00000012,0.00031464,-0.00000159,0.,-0.00015825,-0.00
 063121,-0.00283702,-0.00000006,-0.02678217,0.00686706,-0.00000002,-0.0
 2678669,-0.00686544,-0.00000002,-0.00063030,0.00283777,-0.00000006,-0.
 00186076,-0.00038095,0.00000005,-0.00186099,0.00038128,0.00000005,0.00
 205516,-0.00122172,0.00000006,0.00205462,0.00122153,0.00000006,-0.0573
 5874,-0.07404593,-0.00000002,-0.05736652,0.07407081,-0.00000002,-0.001
 11253,-0.00000009,-0.00000010,0.18143136,-0.00285057,-0.00126528,0.,0.
 02196778,0.00231688,0.,-0.02196957,0.00232140,0.,0.00285183,-0.0012652
 4,0.,-0.00058407,0.00035233,0.,0.00058377,0.00035197,0.,0.00044759,-0.
 00058826,0.,-0.00044744,-0.00058822,0.,-0.06998762,-0.09251105,-0.0000
 0004,0.07001506,-0.09255046,0.00000004,0.00000001,-0.00004996,0.,-0.00
 002478,0.18454480,0.,0.,-0.00208964,-0.00000001,0.,0.00388298,-0.00000
 001,0.,0.00388283,0.,0.,-0.00209020,0.,0.,0.00040282,0.,0.,0.00040213,
 0.,0.,-0.00001810,0.,0.,-0.00001813,-0.00000003,-0.00000004,-0.0041106
 8,-0.00000003,0.00000004,-0.00410619,0.,0.,0.00032039,0.00000009,0.,0.
 00481954,-0.05270029,0.00022003,-0.00000006,0.00336072,0.02688552,0.00
 000002,-0.00435048,0.00120799,-0.00000001,-0.00148233,-0.00000910,0.00
 000002,-0.00428532,-0.00118769,-0.00000002,0.00304800,-0.02672858,0.00
 000002,0.00303673,0.00105854,0.,-0.00081718,-0.00207641,0.,-0.00081326
 ,0.00203690,0.,0.00302149,-0.00127227,0.,0.00081938,-0.00033150,0.,0.0
 0075736,0.00038808,0.,0.05039471,0.00021904,-0.34401592,-0.00000008,-0
 .00505637,-0.01219251,0.,0.00236564,0.00099523,0.,0.00000467,0.0008882
 7,0.,-0.00237104,0.00097713,0.,0.00489496,-0.01209612,-0.00000001,0.00
 071072,0.00165578,0.,-0.00060699,-0.00093254,0.,0.00064984,-0.00089501
 ,0.,-0.00064892,0.00173962,0.,0.00039837,-0.00011016,0.,-0.00037868,-0
 .00016009,0.,-0.00017767,0.36421631,-0.00000004,-0.00000008,-0.0193805
 3,0.,0.00000002,-0.00239463,-0.00000002,0.,0.00796753,0.00000003,0.,-0
 .00393852,-0.00000002,0.00000004,0.00792972,0.,-0.00000007,-0.00256743
 ,-0.00000003,0.,-0.00331262,0.,-0.00000001,-0.00019491,0.,0.,-0.000296
 95,0.,0.,-0.00346647,0.00000004,0.00000002,0.00000185,0.,0.,0.00006072
 ,0.00000004,0.00000009,0.01893762,-0.00148232,0.00000930,0.00000002,-0
 .00435053,-0.00120751,-0.00000001,0.00335893,-0.02688485,0.00000002,-0
 .05270053,-0.00031142,-0.00000006,0.00304771,0.02673442,0.00000002,-0.
 00428536,0.00118793,-0.00000002,-0.00081738,0.00207678,0.,0.00303580,-
 0.00105617,0.,0.00302223,0.00127321,0.,-0.00081354,-0.00203664,0.,0.00
 081938,0.00033154,0.,0.00075750,-0.00038815,0.,-0.00001214,0.00000125,
 0.,0.05039767,-0.00000391,0.00088832,0.,-0.00236447,0.00099586,0.,0.00
 505595,-0.01218148,0.,-0.00029908,-0.34402143,0.00000008,-0.00489369,-
 0.01211255,0.00000001,0.00237256,0.00097663,0.,0.00060767,-0.00093358,
 0.,-0.00071372,0.00165611,0.,0.00064755,0.00173933,0.,-0.00064959,-0.0
 0089418,0.,-0.00039892,-0.00010995,0.,0.00037837,-0.00016018,0.,-0.000
 00130,-0.00007237,0.,0.00025777,0.36422712,0.00000003,0.,-0.00393837,-
 0.00000002,0.,0.00796772,0.,-0.00000002,-0.00239660,-0.00000004,0.0000
 0008,-0.01938345,0.,0.00000007,-0.00256219,-0.00000002,-0.00000004,0.0
 0793006,0.,0.00000001,-0.00019531,-0.00000003,0.,-0.00331340,0.,0.,-0.
 00346658,0.,0.,-0.00029691,0.00000004,-0.00000002,0.00000198,0.,0.,0.0
 0006066,0.,0.,0.00062363,0.00000004,-0.00000009,0.01893776,-0.00032056
 ,-0.00009478,0.00017336,0.00046742,0.00085618,-0.00004636,0.00046747,-
 0.00085582,-0.00004641,-0.00032050,0.00009469,0.00017335,0.00009860,-0
 .00027858,0.00001242,0.00009861,0.00027861,0.00001245,-0.00003257,-0.0
 0001618,-0.00003201,-0.00003254,0.00001617,-0.00003200,-0.00064279,0.0
 0081276,-0.00011199,-0.00064298,-0.00081317,-0.00011195,0.00000846,0.,
 -0.00000470,-0.00633304,-0.00000096,-0.00407870,0.00001130,-0.00000241
 ,0.00001496,0.00001129,0.00000240,0.00001496,0.01478138,0.00007104,0.0
 0005884,-0.00009906,-0.00001512,-0.00023984,-0.00016404,0.00001525,-0.
 00024000,0.00016391,-0.00007111,0.00005885,0.00009916,0.00001512,-0.00
 002145,-0.00002148,-0.00001509,-0.00002137,0.00002148,0.00001824,0.000
 00128,0.00001407,-0.00001826,0.00000128,-0.00001408,-0.00012224,0.0003
 0918,-0.00010371,0.00012216,0.00030909,0.00010356,0.,-0.00000265,0.,-0
 .00000109,-0.00037432,-0.00000050,-0.00000627,0.00000118,-0.00000572,0
 .00000627,0.00000118,0.00000573,0.00000280,-0.00014674,0.00071127,0.00
 004764,0.00015209,-0.00146808,-0.00181072,0.00003232,-0.00146820,0.001
 81065,0.00003237,0.00071131,-0.00004763,0.00015208,-0.00018931,0.00078
 948,0.00000761,-0.00018928,-0.00078949,0.00000763,-0.00008386,0.000113
 49,-0.00002932,-0.00008387,-0.00011347,-0.00002931,0.00214769,-0.00130
 810,-0.00026718,0.00214789,0.00130804,-0.00026717,0.00005489,0.,-0.000
 00336,-0.00297521,-0.00000012,-0.00069958,-0.00001606,0.00001435,0.000
 01550,-0.00001605,-0.00001434,0.00001550,0.00238952,0.00000044,0.36997
 151,-0.00032056,-0.00009478,-0.00017336,0.00046742,0.00085618,0.000046
 36,0.00046747,-0.00085582,0.00004641,-0.00032050,0.00009469,-0.0001733
 5,0.00009860,-0.00027858,-0.00001243,0.00009861,0.00027861,-0.00001245
 ,-0.00003256,-0.00001618,0.00003201,-0.00003253,0.00001617,0.00003200,
 -0.00064279,0.00081276,0.00011199,-0.00064298,-0.00081317,0.00011195,0
 .00000846,0.,0.00000471,-0.00633305,-0.00000096,0.00407870,0.00001130,
 -0.00000241,-0.00001496,0.00001129,0.00000240,-0.00001496,-0.00761955,
 -0.00000171,-0.00167267,0.01478138,0.00007104,0.00005884,0.00009906,-0
 .00001512,-0.00023984,0.00016404,0.00001525,-0.00024000,-0.00016391,-0
 .00007111,0.00005885,-0.00009916,0.00001512,-0.00002145,0.00002148,-0.
 00001509,-0.00002137,-0.00002148,0.00001824,0.00000128,-0.00001407,-0.
 00001826,0.00000128,0.00001408,-0.00012224,0.00030918,0.00010371,0.000
 12216,0.00030909,-0.00010356,0.,-0.00000265,0.,-0.00000109,-0.00037432
 ,0.00000050,-0.00000627,0.00000118,0.00000572,0.00000627,0.00000118,-0
 .00000573,-0.00000171,0.00030549,-0.00000023,0.00000280,-0.00014674,-0
 .00071127,-0.00004764,0.00015209,0.00146808,0.00181071,0.00003232,0.00
 146820,-0.00181064,0.00003237,-0.00071131,0.00004763,0.00015209,0.0001
 8931,-0.00078948,0.00000761,0.00018928,0.00078948,0.00000763,0.0000838
 6,-0.00011349,-0.00002932,0.00008387,0.00011347,-0.00002932,-0.0021476
 9,0.00130810,-0.00026718,-0.00214789,-0.00130804,-0.00026717,-0.000054
 89,0.,-0.00000335,0.00297520,0.00000012,-0.00069957,0.00001606,-0.0000
 1435,0.00001550,0.00001605,0.00001434,0.00001550,0.00167311,0.00000024
 ,-0.36909070,-0.00238995,-0.00000045,0.36997150\\0.00000470,-0.0000424
 7,-0.00000009,-0.00004918,-0.00007317,0.,-0.00002212,0.00004193,0.,-0.
 00001876,0.00008867,-0.00000009,0.00006695,-0.00001614,0.00000012,-0.0
 0001353,0.00000504,0.00000013,0.00001987,-0.00001887,-0.00000004,-0.00
 002273,-0.00001363,-0.00000004,-0.00003409,0.00000967,0.,0.00002197,0.
 00000537,0.,-0.00000588,-0.00000503,-0.00000002,0.00004497,0.00001241,
 0.,0.00001137,-0.00000263,0.,-0.00001220,0.00000852,0.,0.00000432,0.00
 000017,0.00001026,0.00000432,0.00000017,-0.00001026\\\@


 MOM AND DAD WENT TO ALPHA CENTAURI AND ALL
 I GOT WAS THIS DUMB T-SHIRT.
 Job cpu time:       2 days  5 hours 43 minutes 43.6 seconds.
 Elapsed time:       0 days  1 hours 41 minutes 45.2 seconds.
 File lengths (MBytes):  RWF=  46282 Int=      0 D2E=      0 Chk=     25 Scr=      2
 Normal termination of Gaussian 16 at Fri Sep 13 21:08:23 2024.
