LAMMPS data file. msi2lmp v3.9.11 / 6 Sep 2024 / CGCMM for smr_1_opt

   3240 atoms
   3564 bonds
   6264 angles
  10044 dihedrals
   1512 impropers

   4 atom types
   6 bond types
   9 angle types
  13 dihedral types
   3 improper types

   -17.169121725    53.896378275 xlo xhi
    -0.020112211    61.111684490 ylo yhi
    -0.073746049    31.724288932 zlo zhi
   -35.782104300     0.155897612    -0.175238342 xy xz yz

Masses

   1  12.011150 # cp
   2   1.007970 # h
   3  12.011150 # c
   4  12.011150 # c2

Pair Coeffs # lj/cut/coul/long

   1   0.1479999981   3.6170487995 # cp
   2   0.0380000011   2.4499714540 # h
   3   0.1599999990   3.4745050026 # c
   4   0.0389999952   3.8754094636 # c2

Bond Coeffs # harmonic

   1   480.0000     1.3400 # cp-cp
   2   283.0924     1.5100 # cp-c2
   3   363.4164     1.0800 # cp-h
   4   283.0924     1.5100 # cp-c
   5   322.7158     1.5260 # c2-c2
   6   340.6175     1.1050 # h-c2

Angle Coeffs # harmonic

   1    90.0000   120.0000 # cp-cp-cp
   2    44.2000   120.0000 # cp-cp-c2
   3    37.0000   120.0000 # cp-cp-h
   4    44.2000   120.0000 # cp-cp-c
   5    46.6000   110.5000 # cp-c-cp
   6    46.6000   110.5000 # cp-c2-c2
   7    44.4000   110.0000 # cp-c2-h
   8    44.4000   110.0000 # h-c2-c2
   9    39.5000   106.4000 # h-c2-h

Dihedral Coeffs # harmonic

  1     3.0000  -1   2 # cp-cp-cp-cp
  2     3.0000  -1   2 # cp-cp-cp-h
  3     3.0000  -1   2 # cp-cp-cp-c2
  4     3.0000  -1   2 # h-cp-cp-c2
  5     0.0000   1   2 # cp-cp-c2-c2
  6     0.0000   1   2 # cp-cp-c2-h
  7     3.0000  -1   2 # h-cp-cp-h
  8     3.0000  -1   2 # cp-cp-cp-c
  9     3.0000  -1   2 # h-cp-cp-c
 10     0.6750   1   4 # cp-cp-c-cp
 11     0.1581   1   3 # cp-c2-c2-cp
 12     0.1581   1   3 # cp-c2-c2-h
 13     0.1581   1   3 # h-c2-c2-h

Improper Coeffs # cvff

    1     0.3700  -1   2 # cp-cp-cp-c2
    2     0.3700  -1   2 # cp-cp-cp-h
    3     0.3700  -1   2 # cp-cp-cp-c

Atoms # full

      1      1   1  0.000000   -13.072000000    41.029100000     8.199460000   0   0   0 # cp
      2      1   1 -0.100000   -11.943600000    41.816300000     8.086170000   0   0   0 # cp
      3      1   1 -0.100000   -12.033400000    43.086400000     7.623160000   0   0   0 # cp
      4      1   1  0.000000   -13.276200000    43.664300000     7.292310000   0   0   0 # cp
      5      1   1 -0.100000   -14.386500000    42.892700000     7.495400000   0   0   0 # cp
      6      1   1 -0.100000   -14.283400000    41.586200000     7.890470000   0   0   0 # cp
      7      1   2  0.100000   -10.944900000    41.422600000     8.298110000   0   0   0 # h
      8      1   2  0.100000   -11.132500000    43.697100000     7.583560000   0   0   0 # h
      9      1   2  0.100000   -15.356200000    43.272500000     7.243320000   0   0   0 # h
     10      1   2  0.100000   -15.162300000    41.003500000     7.943320000   0   0   0 # h
     11      1   1 -0.100000   -15.545500000    44.975800000     5.366150000   0   0   0 # cp
     12      1   1  0.000000   -14.828400000    45.692900000     6.305780000   0   0   0 # cp
     13      1   1 -0.100000   -15.310300000    46.936000000     6.679880000   0   0   0 # cp
     14      1   1 -0.100000   -16.473800000    47.452300000     6.168050000   0   0   0 # cp
     15      1   1  0.000000   -17.206300000    46.694300000     5.266690000   0   0   0 # cp
     16      1   1 -0.100000   -16.723400000    45.449900000     4.863720000   0   0   0 # cp
     17      1   3  0.000000   -13.384500000    45.194200000     6.751290000   0   0   0 # c
     18      1   1  0.000000   -12.531900000    45.389900000     5.441260000   0   0   0 # cp
     19      1   1 -0.100000   -12.280400000    46.674200000     4.981020000   0   0   0 # cp
     20      1   1 -0.100000   -11.554400000    46.904000000     3.848780000   0   0   0 # cp
     21      1   1  0.000000   -11.058600000    45.860100000     3.120350000   0   0   0 # cp
     22      1   1 -0.100000   -11.312300000    44.557300000     3.518860000   0   0   0 # cp
     23      1   1 -0.100000   -12.126800000    44.338800000     4.599970000   0   0   0 # cp
     24      1   1 -0.100000   -13.581100000    45.878600000     9.230810000   0   0   0 # cp
     25      1   1 -0.100000   -13.231600000    46.565900000    10.343100000   0   0   0 # cp
     26      1   1  0.000000   -12.150500000    47.490400000    10.310600000   0   0   0 # cp
     27      1   1 -0.100000   -11.453700000    47.610700000     9.130180000   0   0   0 # cp
     28      1   1 -0.100000   -11.759500000    46.836100000     8.040030000   0   0   0 # cp
     29      1   1  0.000000   -12.871700000    46.000700000     8.031950000   0   0   0 # cp
     30      1   3  0.000000   -11.811000000    48.415600000    11.566700000   0   0   0 # c
     31      1   1  0.000000   -15.146300000    51.184100000    11.221500000   0   0   0 # cp
     32      1   1 -0.100000   -15.271700000    49.985200000    11.880100000   0   0   0 # cp
     33      1   1 -0.100000   -14.211100000    49.144900000    12.012100000   0   0   0 # cp
     34      1   1  0.000000   -12.987000000    49.458700000    11.451300000   0   0   0 # cp
     35      1   1 -0.100000   -12.894600000    50.596500000    10.671400000   0   0   0 # cp
     36      1   1 -0.100000   -13.970500000    51.472100000    10.608000000   0   0   0 # cp
     37      1   1  0.000000   -10.346700000    48.973900000    11.671900000   0   0   0 # cp
     38      1   1 -0.100000    -9.297850000    48.113600000    11.443300000   0   0   0 # cp
     39      1   1 -0.100000    -8.040290000    48.590500000    11.308000000   0   0   0 # cp
     40      1   1  0.000000    -7.752090000    49.932300000    11.502100000   0   0   0 # cp
     41      1   1 -0.100000    -8.783320000    50.780200000    11.873600000   0   0   0 # cp
     42      1   1 -0.100000   -10.052900000    50.319000000    12.001000000   0   0   0 # cp
     43      1   1 -0.100000   -12.030800000    48.381600000    14.158200000   0   0   0 # cp
     44      1   1 -0.100000   -12.130100000    47.752100000    15.366700000   0   0   0 # cp
     45      1   1  0.000000   -11.974400000    46.381600000    15.426800000   0   0   0 # cp
     46      1   1 -0.100000   -11.691800000    45.670400000    14.312200000   0   0   0 # cp
     47      1   1 -0.100000   -11.567400000    46.304600000    13.097800000   0   0   0 # cp
     48      1   1  0.000000   -11.859900000    47.649200000    12.976500000   0   0   0 # cp
     49      1   2  0.100000   -15.187100000    44.035700000     5.021240000   0   0   0 # h
     50      1   2  0.100000   -14.724200000    47.596100000     7.302800000   0   0   0 # h
     51      1   2  0.100000   -16.835800000    48.439900000     6.390550000   0   0   0 # h
     52      1   2  0.100000   -17.278600000    44.898500000     4.099510000   0   0   0 # h
     53      1   2  0.100000   -12.604600000    47.557900000     5.553820000   0   0   0 # h
     54      1   2  0.100000   -11.374400000    47.910900000     3.512660000   0   0   0 # h
     55      1   2  0.100000   -10.990100000    43.702700000     2.951300000   0   0   0 # h
     56      1   2  0.100000   -12.389000000    43.294000000     4.788610000   0   0   0 # h
     57      1   2  0.100000   -14.469300000    45.246900000     9.304930000   0   0   0 # h
     58      1   2  0.100000   -13.868400000    46.432500000    11.217800000   0   0   0 # h
     59      1   2  0.100000   -10.606300000    48.226300000     9.052260000   0   0   0 # h
     60      1   2  0.100000   -11.084800000    46.889400000     7.202580000   0   0   0 # h
     61      1   2  0.100000   -16.188700000    49.757500000    12.375100000   0   0   0 # h
     62      1   2  0.100000   -14.329100000    48.237700000    12.570900000   0   0   0 # h
     63      1   2  0.100000   -11.967600000    50.861300000    10.201000000   0   0   0 # h
     64      1   2  0.100000   -13.864100000    52.409500000    10.058200000   0   0   0 # h
     65      1   2  0.100000    -9.432420000    47.062800000    11.287600000   0   0   0 # h
     66      1   2  0.100000    -7.274540000    47.845500000    11.047500000   0   0   0 # h
     67      1   2  0.100000    -8.635170000    51.835900000    12.023600000   0   0   0 # h
     68      1   2  0.100000   -10.765200000    51.056100000    12.278000000   0   0   0 # h
     69      1   2  0.100000   -12.181900000    49.448600000    14.148900000   0   0   0 # h
     70      1   2  0.100000   -12.383400000    48.343100000    16.231700000   0   0   0 # h
     71      1   2  0.100000   -11.483600000    44.608000000    14.384000000   0   0   0 # h
     72      1   2  0.100000   -11.321500000    45.667500000    12.263000000   0   0   0 # h
     73      1   1  0.000000   -12.409200000    42.050900000    25.366900000   0   0   0 # cp
     74      1   1 -0.100000   -11.323300000    42.706900000    24.825500000   0   0   0 # cp
     75      1   1 -0.100000   -11.523400000    43.882900000    24.157400000   0   0   0 # cp
     76      1   1  0.000000   -12.775900000    44.443900000    24.030000000   0   0   0 # cp
     77      1   1 -0.100000   -13.847800000    43.793600000    24.625200000   0   0   0 # cp
     78      1   1 -0.100000   -13.675200000    42.621600000    25.284500000   0   0   0 # cp
     79      1   2  0.100000   -10.299300000    42.339500000    24.853400000   0   0   0 # h
     80      1   2  0.100000   -10.660600000    44.372700000    23.753400000   0   0   0 # h
     81      1   2  0.100000   -14.812500000    44.196700000    24.601400000   0   0   0 # h
     82      1   2  0.100000   -14.521200000    42.154500000    25.769900000   0   0   0 # h
     83      1   1 -0.100000   -15.269200000    45.404000000    22.308300000   0   0   0 # cp
     84      1   1  0.000000   -14.451400000    46.280500000    22.970100000   0   0   0 # cp
     85      1   1 -0.100000   -14.968900000    47.530600000    23.242600000   0   0   0 # cp
     86      1   1 -0.100000   -16.244500000    47.886400000    22.852200000   0   0   0 # cp
     87      1   1  0.000000   -17.043600000    46.951000000    22.191300000   0   0   0 # cp
     88      1   1 -0.100000   -16.543100000    45.694100000    21.965300000   0   0   0 # cp
     89      1   3  0.000000   -12.939800000    45.893600000    23.306000000   0   0   0 # c
     90      1   1  0.000000   -12.277900000    45.900800000    21.814700000   0   0   0 # cp
     91      1   1 -0.100000   -12.155600000    47.073700000    21.115600000   0   0   0 # cp
     92      1   1 -0.100000   -11.715800000    47.077600000    19.826100000   0   0   0 # cp
     93      1   1  0.000000   -11.431000000    45.898600000    19.180000000   0   0   0 # cp
     94      1   1 -0.100000   -11.608200000    44.710600000    19.852600000   0   0   0 # cp
     95      1   1 -0.100000   -12.003800000    44.724300000    21.152100000   0   0   0 # cp
     96      1   1 -0.100000   -12.896300000    46.953100000    25.664400000   0   0   0 # cp
     97      1   1 -0.100000   -12.334600000    47.693100000    26.670100000   0   0   0 # cp
     98      1   1  0.000000   -11.175400000    48.395800000    26.453800000   0   0   0 # cp
     99      1   1 -0.100000   -10.693300000    48.402700000    25.175400000   0   0   0 # cp
    100      1   1 -0.100000   -11.178000000    47.593800000    24.176000000   0   0   0 # cp
    101      1   1  0.000000   -12.312600000    46.860100000    24.392500000   0   0   0 # cp
    102      1   3  0.000000   -10.534000000    49.176100000    27.657700000   0   0   0 # c
    103      1   1  0.000000   -13.495700000    52.427200000    28.008300000   0   0   0 # cp
    104      1   1 -0.100000   -13.629500000    51.233000000    28.685000000   0   0   0 # cp
    105      1   1 -0.100000   -12.696700000    50.250100000    28.568800000   0   0   0 # cp
    106      1   1  0.000000   -11.591300000    50.382600000    27.756500000   0   0   0 # cp
    107      1   1 -0.100000   -11.492400000    51.566600000    27.003400000   0   0   0 # cp
    108      1   1 -0.100000   -12.445800000    52.570900000    27.134200000   0   0   0 # cp
    109      1   1  0.000000    -9.028570000    49.571700000    27.437200000   0   0   0 # cp
    110      1   1 -0.100000    -8.131830000    48.645000000    26.928900000   0   0   0 # cp
    111      1   1 -0.100000    -6.824210000    48.978500000    26.675700000   0   0   0 # cp
    112      1   1  0.000000    -6.343330000    50.228500000    26.988400000   0   0   0 # cp
    113      1   1 -0.100000    -7.188970000    51.151400000    27.562900000   0   0   0 # cp
    114      1   1 -0.100000    -8.503230000    50.786300000    27.812300000   0   0   0 # cp
    115      1   1 -0.100000   -10.548800000    48.913100000    30.214800000   0   0   0 # cp
    116      1   1 -0.100000   -10.823600000    48.167400000    31.322100000   0   0   0 # cp
    117      1   1  0.000000   -10.690600000    46.795000000    31.256900000   0   0   0 # cp
    118      1   1 -0.100000   -10.290300000    46.207800000    30.085300000   0   0   0 # cp
    119      1   1 -0.100000   -10.153200000    46.974300000    28.949100000   0   0   0 # cp
    120      1   1  0.000000   -10.389200000    48.325800000    28.971900000   0   0   0 # cp
    121      1   2  0.100000   -14.902900000    44.417800000    22.020800000   0   0   0 # h
    122      1   2  0.100000   -14.393500000    48.323800000    23.707400000   0   0   0 # h
    123      1   2  0.100000   -16.537500000    48.913500000    23.047000000   0   0   0 # h
    124      1   2  0.100000   -17.138000000    44.970200000    21.406200000   0   0   0 # h
    125      1   2  0.100000   -12.415500000    48.019900000    21.557300000   0   0   0 # h
    126      1   2  0.100000   -11.667600000    48.033600000    19.353900000   0   0   0 # h
    127      1   2  0.100000   -11.405800000    43.777400000    19.380700000   0   0   0 # h
    128      1   2  0.100000   -12.220400000    43.783200000    21.580700000   0   0   0 # h
    129      1   2  0.100000   -13.767500000    46.393600000    25.918500000   0   0   0 # h
    130      1   2  0.100000   -12.834700000    47.658400000    27.628200000   0   0   0 # h
    131      1   2  0.100000    -9.807760000    48.987300000    24.924200000   0   0   0 # h
    132      1   2  0.100000   -10.587800000    47.595400000    23.255700000   0   0   0 # h
    133      1   2  0.100000   -14.454600000    51.034000000    29.350100000   0   0   0 # h
    134      1   2  0.100000   -12.934700000    49.338900000    29.067700000   0   0   0 # h
    135      1   2  0.100000   -10.703000000    51.703000000    26.262700000   0   0   0 # h
    136      1   2  0.100000   -12.362200000    53.487900000    26.544100000   0   0   0 # h
    137      1   2  0.100000    -8.454220000    47.638400000    26.707800000   0   0   0 # h
    138      1   2  0.100000    -6.141030000    48.212800000    26.294000000   0   0   0 # h
    139      1   2  0.100000    -6.903330000    52.143400000    27.813700000   0   0   0 # h
    140      1   2  0.100000    -9.123690000    51.556700000    28.245200000   0   0   0 # h
    141      1   2  0.100000   -10.583700000    49.969500000    30.345400000   0   0   0 # h
    142      1   2  0.100000   -11.261300000    48.816600000     0.477881000   0   0   0 # h
    143      1   2  0.100000   -10.183300000    45.119800000    29.994900000   0   0   0 # h
    144      1   2  0.100000    -9.921700000    46.451300000    28.042400000   0   0   0 # h
    145      1   1  0.000000   -26.522500000    51.074600000     0.708441000   0   0   0 # cp
    146      1   1 -0.100000   -26.329200000    52.202600000     1.461440000   0   0   0 # cp
    147      1   1 -0.100000   -25.129200000    52.462700000     2.024880000   0   0   0 # cp
    148      1   1  0.000000   -24.047900000    51.614200000     1.893950000   0   0   0 # cp
    149      1   1 -0.100000   -24.256200000    50.474600000     1.164070000   0   0   0 # cp
    150      1   1 -0.100000   -25.493300000    50.162800000     0.612685000   0   0   0 # cp
    151      1   2  0.100000   -27.111900000    52.916400000     1.575320000   0   0   0 # h
    152      1   2  0.100000   -24.977600000    53.414300000     2.516030000   0   0   0 # h
    153      1   2  0.100000   -23.463200000    49.791100000     0.926244000   0   0   0 # h
    154      1   2  0.100000   -25.569400000    49.216600000     0.086886300   0   0   0 # h
    155      1   1 -0.100000   -21.782700000    49.618700000     2.949830000   0   0   0 # cp
    156      1   1  0.000000   -21.490800000    50.902400000     2.544700000   0   0   0 # cp
    157      1   1 -0.100000   -20.130800000    51.231200000     2.443990000   0   0   0 # cp
    158      1   1 -0.100000   -19.143800000    50.309700000     2.708420000   0   0   0 # cp
    159      1   1  0.000000   -19.475600000    49.023600000     3.080680000   0   0   0 # cp
    160      1   1 -0.100000   -20.805900000    48.676000000     3.182880000   0   0   0 # cp
    161      1   3  0.000000   -22.603100000    52.040000000     2.409110000   0   0   0 # c
    162      1   1  0.000000   -22.630700000    52.513300000     3.923200000   0   0   0 # cp
    163      1   1 -0.100000   -21.721900000    53.390100000     4.437050000   0   0   0 # cp
    164      1   1 -0.100000   -21.747100000    53.730700000     5.771330000   0   0   0 # cp
    165      1   1  0.000000   -22.599600000    53.083000000     6.645120000   0   0   0 # cp
    166      1   1 -0.100000   -23.479800000    52.161600000     6.145220000   0   0   0 # cp
    167      1   1 -0.100000   -23.479800000    51.874200000     4.806960000   0   0   0 # cp
    168      1   1 -0.100000   -21.899897612    52.557538342    -0.008134981   0   0   1 # cp
    169      1   1 -0.100000   -21.315300000    53.225400000    30.820900000   0   0   0 # cp
    170      1   1  0.000000   -21.268800000    54.605500000    31.015400000   0   0   0 # cp
    171      1   1 -0.100000   -21.812000000    55.254800000     0.447154000   0   0   0 # cp
    172      1   1 -0.100000   -22.311500000    54.418600000     1.402870000   0   0   0 # cp
    173      1   1  0.000000   -22.260100000    53.052300000     1.220720000   0   0   0 # cp
    174      1   3  0.000000   -20.721800000    55.573300000    29.839500000   0   0   0 # c
    175      1   1  0.000000   -16.484700000    54.275600000    29.693100000   0   0   0 # cp
    176      1   1 -0.100000   -17.476700000    53.598800000    28.985400000   0   0   0 # cp
    177      1   1 -0.100000   -18.776000000    54.054600000    29.003100000   0   0   0 # cp
    178      1   1  0.000000   -19.169000000    55.130200000    29.795100000   0   0   0 # cp
    179      1   1 -0.100000   -18.212700000    55.686700000    30.616700000   0   0   0 # cp
    180      1   1 -0.100000   -16.899000000    55.250900000    30.582700000   0   0   0 # cp
    181      1   1  0.000000   -20.972800000    57.144700000    30.026100000   0   0   0 # cp
    182      1   1 -0.100000   -22.208900000    57.607700000    30.465200000   0   0   0 # cp
    183      1   1 -0.100000   -22.438600000    58.929500000    30.737400000   0   0   0 # cp
    184      1   1  0.000000   -21.436100000    59.860500000    30.532300000   0   0   0 # cp
    185      1   1 -0.100000   -20.218900000    59.433900000    30.009400000   0   0   0 # cp
    186      1   1 -0.100000   -19.993800000    58.102300000    29.772900000   0   0   0 # cp
    187      1   1 -0.100000   -20.804900000    55.800800000    27.257800000   0   0   0 # cp
    188      1   1 -0.100000   -21.380600000    55.553300000    26.028900000   0   0   0 # cp
    189      1   1  0.000000   -22.557300000    54.839600000    25.918000000   0   0   0 # cp
    190      1   1 -0.100000   -23.195700000    54.437300000    27.078600000   0   0   0 # cp
    191      1   1 -0.100000   -22.652500000    54.745200000    28.290500000   0   0   0 # cp
    192      1   1  0.000000   -21.410000000    55.335600000    28.402600000   0   0   0 # cp
    193      1   2  0.100000   -22.797800000    49.349100000     3.138740000   0   0   0 # h
    194      1   2  0.100000   -19.818800000    52.228100000     2.171220000   0   0   0 # h
    195      1   2  0.100000   -18.130400000    50.649100000     2.627570000   0   0   0 # h
    196      1   2  0.100000   -21.122700000    47.689700000     3.527900000   0   0   0 # h
    197      1   2  0.100000   -20.986200000    53.903800000     3.828470000   0   0   0 # h
    198      1   2  0.100000   -21.062600000    54.474300000     6.164420000   0   0   0 # h
    199      1   2  0.100000   -24.200200000    51.667300000     6.793450000   0   0   0 # h
    200      1   2  0.100000   -24.193000000    51.168500000     4.436140000   0   0   0 # h
    201      1   2  0.100000   -21.774000000    51.314600000    31.578100000   0   0   0 # h
    202      1   2  0.100000   -21.091400000    52.776000000    29.853600000   0   0   0 # h
    203      1   2  0.100000   -21.767200000    56.293100000     0.686068000   0   0   0 # h
    204      1   2  0.100000   -22.635000000    54.867900000     2.319140000   0   0   0 # h
    205      1   2  0.100000   -17.261600000    52.729100000    28.381000000   0   0   0 # h
    206      1   2  0.100000   -19.469300000    53.520600000    28.410900000   0   0   0 # h
    207      1   2  0.100000   -18.418500000    56.510300000    31.255400000   0   0   0 # h
    208      1   2  0.100000   -16.158200000    55.777100000    31.154600000   0   0   0 # h
    209      1   2  0.100000   -23.011900000    56.923800000    30.692200000   0   0   0 # h
    210      1   2  0.100000   -23.378700000    59.188100000    31.201200000   0   0   0 # h
    211      1   2  0.100000   -19.467300000    60.139500000    29.694600000   0   0   0 # h
    212      1   2  0.100000   -19.058500000    57.858700000    29.280900000   0   0   0 # h
    213      1   2  0.100000   -19.884000000    56.409100000    27.276500000   0   0   0 # h
    214      1   2  0.100000   -20.890100000    55.916800000    25.145000000   0   0   0 # h
    215      1   2  0.100000   -24.069800000    53.803600000    27.005700000   0   0   0 # h
    216      1   2  0.100000   -23.149400000    54.450800000    29.206900000   0   0   0 # h
    217      1   1  0.000000   -26.824500000    48.981900000    17.497200000   0   0   0 # cp
    218      1   1 -0.100000   -26.848500000    50.191500000    18.149400000   0   0   0 # cp
    219      1   1 -0.100000   -25.662400000    50.778500000    18.545100000   0   0   0 # cp
    220      1   1  0.000000   -24.424800000    50.175600000    18.335800000   0   0   0 # cp
    221      1   1 -0.100000   -24.447500000    48.954900000    17.685100000   0   0   0 # cp
    222      1   1 -0.100000   -25.612000000    48.367100000    17.269400000   0   0   0 # cp
    223      1   2  0.100000   -27.787700000    50.662300000    18.337500000   0   0   0 # h
    224      1   2  0.100000   -25.724800000    51.730400000    19.067500000   0   0   0 # h
    225      1   2  0.100000   -23.520900000    48.414200000    17.450300000   0   0   0 # h
    226      1   2  0.100000   -25.582800000    47.449300000    16.766800000   0   0   0 # h
    227      1   1 -0.100000   -22.077600000    48.627300000    19.634300000   0   0   0 # cp
    228      1   1  0.000000   -21.851000000    49.860800000    19.081800000   0   0   0 # cp
    229      1   1 -0.100000   -20.525600000    50.234200000    18.909500000   0   0   0 # cp
    230      1   1 -0.100000   -19.471400000    49.431800000    19.264300000   0   0   0 # cp
    231      1   1  0.000000   -19.752900000    48.207700000    19.804700000   0   0   0 # cp
    232      1   1 -0.100000   -21.042400000    47.783500000    19.971600000   0   0   0 # cp
    233      1   3  0.000000   -23.067900000    50.834100000    18.746800000   0   0   0 # c
    234      1   1  0.000000   -23.169800000    51.551100000    20.152700000   0   0   0 # cp
    235      1   1 -0.100000   -22.266100000    52.567000000    20.434600000   0   0   0 # cp
    236      1   1 -0.100000   -22.145900000    53.090900000    21.724600000   0   0   0 # cp
    237      1   1  0.000000   -22.929000000    52.601800000    22.733000000   0   0   0 # cp
    238      1   1 -0.100000   -23.809800000    51.575600000    22.463900000   0   0   0 # cp
    239      1   1 -0.100000   -23.946500000    51.100400000    21.202500000   0   0   0 # cp
    240      1   1 -0.100000   -22.125100000    51.376700000    16.406200000   0   0   0 # cp
    241      1   1 -0.100000   -21.846000000    52.229500000    15.359300000   0   0   0 # cp
    242      1   1  0.000000   -22.276700000    53.558700000    15.392900000   0   0   0 # cp
    243      1   1 -0.100000   -23.140100000    53.919200000    16.405300000   0   0   0 # cp
    244      1   1 -0.100000   -23.415000000    53.061500000    17.433500000   0   0   0 # cp
    245      1   1  0.000000   -22.866500000    51.787400000    17.501200000   0   0   0 # cp
    246      1   3  0.000000   -21.750800000    54.591600000    14.223400000   0   0   0 # c
    247      1   1  0.000000   -17.620900000    53.639400000    12.924400000   0   0   0 # cp
    248      1   1 -0.100000   -18.503400000    54.151100000    12.031500000   0   0   0 # cp
    249      1   1 -0.100000   -19.780600000    54.495300000    12.394200000   0   0   0 # cp
    250      1   1  0.000000   -20.214800000    54.289700000    13.729100000   0   0   0 # cp
    251      1   1 -0.100000   -19.273700000    53.847800000    14.635900000   0   0   0 # cp
    252      1   1 -0.100000   -17.996400000    53.517800000    14.235700000   0   0   0 # cp
    253      1   1  0.000000   -21.856000000    56.096500000    14.825200000   0   0   0 # cp
    254      1   1 -0.100000   -23.058600000    56.845900000    14.837700000   0   0   0 # cp
    255      1   1 -0.100000   -23.121600000    58.111300000    15.352100000   0   0   0 # cp
    256      1   1  0.000000   -22.041000000    58.675800000    15.910700000   0   0   0 # cp
    257      1   1 -0.100000   -20.855700000    57.999000000    15.962700000   0   0   0 # cp
    258      1   1 -0.100000   -20.755800000    56.745200000    15.392900000   0   0   0 # cp
    259      1   1 -0.100000   -22.689000000    55.573400000    11.974200000   0   0   0 # cp
    260      1   1 -0.100000   -23.126600000    55.400400000    10.699900000   0   0   0 # cp
    261      1   1  0.000000   -23.581800000    54.163400000    10.299300000   0   0   0 # cp
    262      1   1 -0.100000   -23.752400000    53.171200000    11.227400000   0   0   0 # cp
    263      1   1 -0.100000   -23.285200000    53.330700000    12.513700000   0   0   0 # cp
    264      1   1  0.000000   -22.636400000    54.501400000    12.884400000   0   0   0 # cp
    265      1   2  0.100000   -23.067400000    48.302300000    19.912400000   0   0   0 # h
    266      1   2  0.100000   -20.274400000    51.207700000    18.495400000   0   0   0 # h
    267      1   2  0.100000   -18.451000000    49.763100000    19.050800000   0   0   0 # h
    268      1   2  0.100000   -21.243600000    46.819900000    20.418100000   0   0   0 # h
    269      1   2  0.100000   -21.646300000    52.966500000    19.626800000   0   0   0 # h
    270      1   2  0.100000   -21.500000000    53.931300000    21.906100000   0   0   0 # h
    271      1   2  0.100000   -24.390400000    51.149300000    23.262400000   0   0   0 # h
    272      1   2  0.100000   -24.595700000    50.231800000    21.110500000   0   0   0 # h
    273      1   2  0.100000   -21.728000000    50.387000000    16.310300000   0   0   0 # h
    274      1   2  0.100000   -21.240300000    51.854500000    14.529500000   0   0   0 # h
    275      1   2  0.100000   -23.553200000    54.914200000    16.498500000   0   0   0 # h
    276      1   2  0.100000   -24.071200000    53.399500000    18.203500000   0   0   0 # h
    277      1   2  0.100000   -18.175800000    54.253200000    11.004200000   0   0   0 # h
    278      1   2  0.100000   -20.371000000    54.823900000    11.580000000   0   0   0 # h
    279      1   2  0.100000   -19.560900000    53.799600000    15.690900000   0   0   0 # h
    280      1   2  0.100000   -17.317700000    53.115100000    14.978400000   0   0   0 # h
    281      1   2  0.100000   -23.948200000    56.385400000    14.420700000   0   0   0 # h
    282      1   2  0.100000   -24.038400000    58.673100000    15.325800000   0   0   0 # h
    283      1   2  0.100000   -19.960700000    58.441400000    16.347100000   0   0   0 # h
    284      1   2  0.100000   -19.776700000    56.287500000    15.400400000   0   0   0 # h
    285      1   2  0.100000   -22.275200000    56.540600000    12.161400000   0   0   0 # h
    286      1   2  0.100000   -22.971100000    56.232200000    10.021900000   0   0   0 # h
    287      1   2  0.100000   -24.225300000    52.238400000    10.890700000   0   0   0 # h
    288      1   2  0.100000   -23.385500000    52.459100000    13.145800000   0   0   0 # h
    289      1   1  0.000000     5.734950000    52.220100000    10.634000000   0   0   0 # cp
    290      1   1 -0.100000     4.935230000    51.493400000    11.475500000   0   0   0 # cp
    291      1   1 -0.100000     3.956080000    52.108800000    12.217600000   0   0   0 # cp
    292      1   1  0.000000     3.859970000    53.494000000    12.269600000   0   0   0 # cp
    293      1   1 -0.100000     4.672580000    54.199100000    11.415800000   0   0   0 # cp
    294      1   1 -0.100000     5.612210000    53.593400000    10.617100000   0   0   0 # cp
    295      1   2  0.100000     5.011050000    50.420400000    11.556200000   0   0   0 # h
    296      1   2  0.100000     3.255110000    51.516000000    12.760900000   0   0   0 # h
    297      1   2  0.100000     4.583610000    55.268500000    11.359000000   0   0   0 # h
    298      1   2  0.100000     6.283780000    54.205600000    10.011600000   0   0   0 # h
    299      1   1 -0.100000     4.395480000    55.959200000    14.065000000   0   0   0 # cp