LAMMPS data file. msi2lmp v3.9.11 / 6 Sep 2024 / CGCMM for sxg_0_opt

   2160 atoms
   2376 bonds
   4176 angles
   6696 dihedrals
   1008 impropers

   4 atom types
   6 bond types
   9 angle types
  13 dihedral types
   3 improper types

     0.079640806    42.917940806 xlo xhi
     0.417672683    43.265223882 ylo yhi
     1.057522205    43.405043019 zlo zhi
     0.112922719     0.038509005    -0.397087249 xy xz yz

Masses

   1  12.011150 # cp
   2   1.007970 # h
   3  12.011150 # c
   4  12.011150 # c2

Pair Coeffs # lj/cut/coul/long

   1   0.1479999981   3.6170487995 # cp
   2   0.0380000011   2.4499714540 # h
   3   0.1599999990   3.4745050026 # c
   4   0.0389999952   3.8754094636 # c2

Bond Coeffs # harmonic

   1   480.0000     1.3400 # cp-cp
   2   283.0924     1.5100 # cp-c2
   3   363.4164     1.0800 # cp-h
   4   283.0924     1.5100 # cp-c
   5   322.7158     1.5260 # c2-c2
   6   340.6175     1.1050 # h-c2

Angle Coeffs # harmonic

   1    90.0000   120.0000 # cp-cp-cp
   2    44.2000   120.0000 # cp-cp-c2
   3    37.0000   120.0000 # cp-cp-h
   4    44.2000   120.0000 # cp-cp-c
   5    46.6000   110.5000 # cp-c-cp
   6    46.6000   110.5000 # cp-c2-c2
   7    44.4000   110.0000 # cp-c2-h
   8    44.4000   110.0000 # h-c2-c2
   9    39.5000   106.4000 # h-c2-h

Dihedral Coeffs # harmonic

  1     3.0000  -1   2 # cp-cp-cp-cp
  2     3.0000  -1   2 # cp-cp-cp-h
  3     3.0000  -1   2 # cp-cp-cp-c2
  4     3.0000  -1   2 # h-cp-cp-c2
  5     0.0000   1   2 # cp-cp-c2-c2
  6     0.0000   1   2 # cp-cp-c2-h
  7     3.0000  -1   2 # h-cp-cp-h
  8     3.0000  -1   2 # cp-cp-cp-c
  9     3.0000  -1   2 # h-cp-cp-c
 10     0.6750   1   4 # cp-cp-c-cp
 11     0.1581   1   3 # cp-c2-c2-cp
 12     0.1581   1   3 # cp-c2-c2-h
 13     0.1581   1   3 # h-c2-c2-h

Improper Coeffs # cvff

    1     0.3700  -1   2 # cp-cp-cp-c2
    2     0.3700  -1   2 # cp-cp-cp-h
    3     0.3700  -1   2 # cp-cp-cp-c

Atoms # full

      1      1   1  0.000000     9.437690000    39.890800000    22.788600000   0   0   0 # cp
      2      1   1 -0.100000     8.110680000    39.519800000    22.892000000   0   0   0 # cp
      3      1   1 -0.100000     7.685620000    38.259200000    22.556000000   0   0   0 # cp
      4      1   1  0.000000     8.575450000    37.257400000    22.255900000   0   0   0 # cp
      5      1   1 -0.100000     9.923230000    37.608900000    22.195700000   0   0   0 # cp
      6      1   1 -0.100000    10.334700000    38.892800000    22.475100000   0   0   0 # cp
      7      1   2  0.100000     7.371400000    40.227300000    23.180000000   0   0   0 # h
      8      1   2  0.100000     6.633070000    38.065000000    22.712500000   0   0   0 # h
      9      1   2  0.100000    10.678500000    36.845600000    22.081000000   0   0   0 # h
     10      1   2  0.100000    11.394300000    39.110800000    22.497300000   0   0   0 # h
     11      1   1 -0.100000     9.209410000    35.253000000    19.996300000   0   0   0 # cp
     12      1   1  0.000000     8.777530000    34.789700000    21.238300000   0   0   0 # cp
     13      1   1 -0.100000     8.954260000    33.441500000    21.489900000   0   0   0 # cp
     14      1   1 -0.100000     9.594990000    32.597000000    20.604900000   0   0   0 # cp
     15      1   1  0.000000    10.086300000    33.119900000    19.424400000   0   0   0 # cp
     16      1   1 -0.100000     9.854660000    34.434000000    19.114300000   0   0   0 # cp
     17      1   3  0.000000     8.061310000    35.736900000    22.284100000   0   0   0 # c
     18      1   1  0.000000     6.539480000    35.540000000    21.816200000   0   0   0 # cp
     19      1   1 -0.100000     5.734280000    34.517100000    22.338800000   0   0   0 # cp
     20      1   1 -0.100000     4.480540000    34.231000000    21.811100000   0   0   0 # cp
     21      1   1  0.000000     4.021770000    34.991800000    20.742400000   0   0   0 # cp
     22      1   1 -0.100000     4.796660000    36.012600000    20.249400000   0   0   0 # cp
     23      1   1 -0.100000     6.035280000    36.241700000    20.751000000   0   0   0 # cp
     24      1   1 -0.100000     9.574030000    34.797400000    24.295500000   0   0   0 # cp
     25      1   1 -0.100000     9.954630000    34.926800000    25.606000000   0   0   0 # cp
     26      1   1  0.000000     9.249260000    35.753600000    26.445300000   0   0   0 # cp
     27      1   1 -0.100000     8.003010000    36.181500000    26.029500000   0   0   0 # cp
     28      1   1 -0.100000     7.564950000    35.930400000    24.759500000   0   0   0 # cp
     29      1   1  0.000000     8.408500000    35.394700000    23.822300000   0   0   0 # cp
     30      1   3  0.000000     9.725700000    36.206800000    27.893600000   0   0   0 # c
     31      1   1  0.000000     7.009310000    33.915900000    30.385800000   0   0   0 # cp
     32      1   1 -0.100000     8.168550000    33.349700000    29.912200000   0   0   0 # cp
     33      1   1 -0.100000     8.971630000    34.071900000    29.087200000   0   0   0 # cp
     34      1   1  0.000000     8.725480000    35.410200000    28.820600000   0   0   0 # cp
     35      1   1 -0.100000     7.537430000    35.933200000    29.260300000   0   0   0 # cp
     36      1   1 -0.100000     6.683280000    35.209000000    30.034400000   0   0   0 # cp
     37      1   1  0.000000     9.661660000    37.791300000    28.031700000   0   0   0 # cp
     38      1   1 -0.100000    10.030200000    38.565300000    26.958700000   0   0   0 # cp
     39      1   1 -0.100000    10.326400000    39.896100000    27.150100000   0   0   0 # cp
     40      1   1  0.000000    10.340000000    40.444900000    28.417100000   0   0   0 # cp
     41      1   1 -0.100000     9.763510000    39.773700000    29.449500000   0   0   0 # cp
     42      1   1 -0.100000     9.483260000    38.430200000    29.278200000   0   0   0 # cp
     43      1   1 -0.100000    11.565400000    35.785700000    29.658800000   0   0   0 # cp
     44      1   1 -0.100000    12.866300000    35.700000000    30.112500000   0   0   0 # cp
     45      1   1  0.000000    13.890500000    35.723400000    29.209300000   0   0   0 # cp
     46      1   1 -0.100000    13.610000000    35.901700000    27.870900000   0   0   0 # cp
     47      1   1 -0.100000    12.328400000    36.097400000    27.450200000   0   0   0 # cp
     48      1   1  0.000000    11.260100000    35.964600000    28.302400000   0   0   0 # cp
     49      1   2  0.100000     9.083160000    36.295400000    19.727200000   0   0   0 # h
     50      1   2  0.100000     8.570110000    32.976000000    22.368400000   0   0   0 # h
     51      1   2  0.100000     9.773210000    31.551000000    20.816600000   0   0   0 # h
     52      1   2  0.100000    10.203300000    34.862500000    18.184200000   0   0   0 # h
     53      1   2  0.100000     6.144550000    33.811400000    23.065800000   0   0   0 # h
     54      1   2  0.100000     3.827530000    33.484700000    22.262700000   0   0   0 # h
     55      1   2  0.100000     4.387730000    36.660500000    19.489400000   0   0   0 # h
     56      1   2  0.100000     6.655090000    36.980200000    20.266100000   0   0   0 # h
     57      1   2  0.100000    10.307300000    34.340800000    23.662900000   0   0   0 # h
     58      1   2  0.100000    10.872900000    34.478000000    25.972300000   0   0   0 # h
     59      1   2  0.100000     7.374540000    36.775900000    26.670700000   0   0   0 # h
     60      1   2  0.100000     6.647070000    36.429400000    24.472700000   0   0   0 # h
     61      1   2  0.100000     8.419040000    32.331000000    30.144900000   0   0   0 # h
     62      1   2  0.100000     9.842680000    33.628800000    28.660700000   0   0   0 # h
     63      1   2  0.100000     7.239170000    36.936600000    29.053300000   0   0   0 # h
     64      1   2  0.100000     5.735570000    35.634200000    30.395200000   0   0   0 # h
     65      1   2  0.100000    10.224200000    38.158700000    25.966400000   0   0   0 # h
     66      1   2  0.100000    10.743200000    40.451900000    26.322600000   0   0   0 # h
     67      1   2  0.100000     9.693950000    40.203600000    30.435500000   0   0   0 # h
     68      1   2  0.100000     9.283000000    37.836500000    30.168900000   0   0   0 # h
     69      1   2  0.100000    10.808600000    35.747700000    30.405500000   0   0   0 # h
     70      1   2  0.100000    13.119000000    35.621900000    31.171600000   0   0   0 # h
     71      1   2  0.100000    14.476200000    36.050700000    27.243500000   0   0   0 # h
     72      1   2  0.100000    12.148500000    36.302600000    26.420100000   0   0   0 # h
     73      1   1  0.000000    15.635600000     2.166120000    35.236300000   0   0   0 # cp
     74      1   1 -0.100000    15.643200000     1.736710000    36.529000000   0   0   0 # cp
     75      1   1 -0.100000    14.481500000     1.731870000    37.278700000   0   0   0 # cp
     76      1   1  0.000000    13.284000000     2.203360000    36.760400000   0   0   0 # cp
     77      1   1 -0.100000    13.303400000     2.652760000    35.445200000   0   0   0 # cp
     78      1   1 -0.100000    14.442900000     2.601640000    34.683300000   0   0   0 # cp
     79      1   2  0.100000    16.566900000     1.310400000    36.915800000   0   0   0 # h
     80      1   2  0.100000    14.590300000     1.305360000    38.288700000   0   0   0 # h
     81      1   2  0.100000    12.405300000     3.044860000    34.959000000   0   0   0 # h
     82      1   2  0.100000    14.377600000     2.925300000    33.657100000   0   0   0 # h
     83      1   1 -0.100000    11.068900000     4.382780000    36.940000000   0   0   0 # cp
     84      1   1  0.000000    10.803800000     3.052860000    37.302700000   0   0   0 # cp
     85      1   1 -0.100000     9.498540000     2.680040000    37.528300000   0   0   0 # cp
     86      1   1 -0.100000     8.491520000     3.592930000    37.464000000   0   0   0 # cp
     87      1   1  0.000000     8.738190000     4.887100000    37.108600000   0   0   0 # cp
     88      1   1 -0.100000    10.032900000     5.267660000    36.816000000   0   0   0 # cp
     89      1   3  0.000000    11.951000000     2.017530000    37.589100000   0   0   0 # c
     90      1   1  0.000000    12.176500000     2.288900000    39.134900000   0   0   0 # cp
     91      1   1 -0.100000    11.403500000     1.609480000    40.067000000   0   0   0 # cp
     92      1   1 -0.100000    11.325700000     2.028460000    41.390300000   0   0   0 # cp
     93      1   1  0.000000    12.103500000     3.106900000    41.804700000   0   0   0 # cp
     94      1   1 -0.100000    12.929200000     3.738960000    40.915600000   0   0   0 # cp
     95      1   1 -0.100000    12.908900000     3.379100000    39.583600000   0   0   0 # cp
     96      1   1 -0.100000    11.039377263     0.279742028    35.941200000   0   0   0 # cp
     97      1   1 -0.100000    11.326300000    41.973200000    35.270200000   0   0   0 # cp
     98      1   1  0.000000    12.174000000    41.002200000    35.752200000   0   0   0 # cp
     99      1   1 -0.100000    12.560700000    41.139700000    37.064900000   0   0   0 # cp
    100      1   1 -0.100000    12.350400000    42.284000000    37.757400000   0   0   0 # cp
    101      1   1  0.000000    11.620277263     0.503642028    37.172000000   0   0   0 # cp
    102      1   3  0.000000    12.757000000    39.863100000    34.793100000   0   0   0 # c
    103      1   1  0.000000    10.274000000    36.632100000    36.438900000   0   0   0 # cp
    104      1   1 -0.100000     9.887840000    37.322500000    35.307000000   0   0   0 # cp
    105      1   1 -0.100000    10.692800000    38.327500000    34.802100000   0   0   0 # cp
    106      1   1  0.000000    11.910900000    38.632700000    35.368200000   0   0   0 # cp
    107      1   1 -0.100000    12.254600000    37.949700000    36.535100000   0   0   0 # cp
    108      1   1 -0.100000    11.419300000    37.046400000    37.070100000   0   0   0 # cp
    109      1   1  0.000000    14.305100000    39.584400000    34.976100000   0   0   0 # cp
    110      1   1 -0.100000    15.242900000    40.551600000    35.326100000   0   0   0 # cp
    111      1   1 -0.100000    16.545300000    40.244700000    35.469300000   0   0   0 # cp
    112      1   1  0.000000    17.004800000    38.981300000    35.241600000   0   0   0 # cp
    113      1   1 -0.100000    16.115800000    38.022400000    34.804600000   0   0   0 # cp
    114      1   1 -0.100000    14.803500000    38.333100000    34.667200000   0   0   0 # cp
    115      1   1 -0.100000    12.582300000    39.190400000    32.245600000   0   0   0 # cp
    116      1   1 -0.100000    12.666000000    39.475800000    30.901500000   0   0   0 # cp
    117      1   1  0.000000    12.841800000    40.795200000    30.505000000   0   0   0 # cp
    118      1   1 -0.100000    13.123600000    41.760500000    31.446000000   0   0   0 # cp
    119      1   1 -0.100000    13.083600000    41.461500000    32.766800000   0   0   0 # cp
    120      1   1  0.000000    12.742000000    40.182400000    33.205800000   0   0   0 # cp
    121      1   2  0.100000    12.063800000     4.762790000    36.878400000   0   0   0 # h
    122      1   2  0.100000     9.256960000     1.647580000    37.842500000   0   0   0 # h
    123      1   2  0.100000     7.461050000     3.294600000    37.689500000   0   0   0 # h
    124      1   2  0.100000    10.275000000     6.273340000    36.567500000   0   0   0 # h
    125      1   2  0.100000    10.749177263     0.770742028    39.796300000   0   0   0 # h
    126      1   2  0.100000    10.713100000     1.508480000    42.141700000   0   0   0 # h
    127      1   2  0.100000    13.619200000     4.540150000    41.242100000   0   0   0 # h
    128      1   2  0.100000    13.586200000     3.918480000    38.947700000   0   0   0 # h
    129      1   2  0.100000    10.538600000     1.064640000    35.401600000   0   0   0 # h
    130      1   2  0.100000    10.885900000    41.897600000    34.290400000   0   0   0 # h
    131      1   2  0.100000    13.142500000    40.392800000    37.535800000   0   0   0 # h
    132      1   2  0.100000    12.803700000    42.397300000    38.709600000   0   0   0 # h
    133      1   2  0.100000     8.922650000    37.161500000    34.850500000   0   0   0 # h
    134      1   2  0.100000    10.290300000    38.836700000    33.954900000   0   0   0 # h
    135      1   2  0.100000    13.083800000    38.270100000    37.130200000   0   0   0 # h
    136      1   2  0.100000    11.684800000    36.659800000    38.030400000   0   0   0 # h
    137      1   2  0.100000    14.903700000    41.536000000    35.530600000   0   0   0 # h
    138      1   2  0.100000    17.186000000    41.047400000    35.780000000   0   0   0 # h
    139      1   2  0.100000    16.493900000    37.028600000    34.577100000   0   0   0 # h
    140      1   2  0.100000    14.133400000    37.561400000    34.363800000   0   0   0 # h
    141      1   2  0.100000    12.381900000    38.178600000    32.537300000   0   0   0 # h
    142      1   2  0.100000    12.553600000    38.661500000    30.145600000   0   0   0 # h
    143      1   2  0.100000    13.398899982    42.771093227    31.150800000   0  -1   0 # h
    144      1   2  0.100000    13.397700000    42.218000000    33.471600000   0   0   0 # h
    145      1   1  0.000000    23.132400000    32.187100000    29.872000000   0   0   0 # cp
    146      1   1 -0.100000    22.580200000    30.938000000    29.802800000   0   0   0 # cp
    147      1   1 -0.100000    22.700900000    30.079000000    30.870800000   0   0   0 # cp
    148      1   1  0.000000    23.318400000    30.470200000    32.043300000   0   0   0 # cp
    149      1   1 -0.100000    23.745800000    31.771000000    32.102300000   0   0   0 # cp
    150      1   1 -0.100000    23.789800000    32.562300000    31.004300000   0   0   0 # cp
    151      1   2  0.100000    22.041500000    30.548300000    28.907800000   0   0   0 # h
    152      1   2  0.100000    22.216600000    29.118600000    30.773900000   0   0   0 # h
    153      1   2  0.100000    24.188500000    32.158100000    33.002300000   0   0   0 # h
    154      1   2  0.100000    24.212700000    33.545600000    31.057800000   0   0   0 # h
    155      1   1 -0.100000    25.816700000    29.941700000    33.876700000   0   0   0 # cp
    156      1   1  0.000000    24.538600000    29.616200000    34.319700000   0   0   0 # cp
    157      1   1 -0.100000    24.392100000    29.309500000    35.692600000   0   0   0 # cp
    158      1   1 -0.100000    25.478900000    29.314900000    36.540700000   0   0   0 # cp
    159      1   1  0.000000    26.730900000    29.748600000    36.052600000   0   0   0 # cp
    160      1   1 -0.100000    26.878100000    30.038000000    34.732500000   0   0   0 # cp
    161      1   3  0.000000    23.256400000    29.544700000    33.343900000   0   0   0 # c
    162      1   1  0.000000    23.335500000    27.997900000    32.978500000   0   0   0 # cp
    163      1   1 -0.100000    22.607300000    27.039300000    33.684700000   0   0   0 # cp
    164      1   1 -0.100000    22.676300000    25.721200000    33.365200000   0   0   0 # cp
    165      1   1  0.000000    23.475600000    25.290300000    32.346500000   0   0   0 # cp
    166      1   1 -0.100000    24.253800000    26.214900000    31.648800000   0   0   0 # cp
    167      1   1 -0.100000    24.179400000    27.542900000    31.957400000   0   0   0 # cp
    168      1   1 -0.100000    21.761100000    30.931200000    34.981000000   0   0   0 # cp
    169      1   1 -0.100000    20.566100000    31.541300000    35.321100000   0   0   0 # cp
    170      1   1  0.000000    19.438300000    31.303100000    34.570600000   0   0   0 # cp
    171      1   1 -0.100000    19.509400000    30.286400000    33.624500000   0   0   0 # cp
    172      1   1 -0.100000    20.674800000    29.636400000    33.329000000   0   0   0 # cp
    173      1   1  0.000000    21.868100000    30.022200000    33.933600000   0   0   0 # cp
    174      1   3  0.000000    18.123300000    32.189900000    34.708600000   0   0   0 # c
    175      1   1  0.000000    15.692900000    29.170900000    36.839100000   0   0   0 # cp
    176      1   1 -0.100000    16.526200000    29.990400000    37.538100000   0   0   0 # cp
    177      1   1 -0.100000    17.317300000    30.952200000    36.914000000   0   0   0 # cp
    178      1   1  0.000000    17.240700000    31.146400000    35.545900000   0   0   0 # cp
    179      1   1 -0.100000    16.405700000    30.294900000    34.841500000   0   0   0 # cp
    180      1   1 -0.100000    15.665700000    29.301700000    35.454200000   0   0   0 # cp
    181      1   1  0.000000    17.517800000    32.693700000    33.328700000   0   0   0 # cp
    182      1   1 -0.100000    18.283100000    32.886600000    32.182800000   0   0   0 # cp
    183      1   1 -0.100000    17.707500000    33.281900000    30.996600000   0   0   0 # cp
    184      1   1  0.000000    16.374200000    33.595700000    30.969600000   0   0   0 # cp
    185      1   1 -0.100000    15.616200000    33.478600000    32.074900000   0   0   0 # cp
    186      1   1 -0.100000    16.175800000    33.064700000    33.249900000   0   0   0 # cp
    187      1   1 -0.100000    17.370300000    34.174100000    36.206700000   0   0   0 # cp
    188      1   1 -0.100000    17.552800000    35.436700000    36.760400000   0   0   0 # cp
    189      1   1  0.000000    18.609400000    36.220000000    36.341700000   0   0   0 # cp
    190      1   1 -0.100000    19.563800000    35.679000000    35.527300000   0   0   0 # cp
    191      1   1 -0.100000    19.445400000    34.390500000    35.063000000   0   0   0 # cp
    192      1   1  0.000000    18.328400000    33.605200000    35.385900000   0   0   0 # cp
    193      1   2  0.100000    25.972300000    30.160400000    32.814900000   0   0   0 # h
    194      1   2  0.100000    23.407100000    29.040400000    36.099600000   0   0   0 # h
    195      1   2  0.100000    25.379700000    29.038100000    37.565600000   0   0   0 # h
    196      1   2  0.100000    27.859300000    30.316500000    34.376400000   0   0   0 # h
    197      1   2  0.100000    21.933600000    27.311200000    34.476000000   0   0   0 # h
    198      1   2  0.100000    22.078300000    25.013200000    33.927600000   0   0   0 # h
    199      1   2  0.100000    24.946900000    25.947200000    30.876900000   0   0   0 # h
    200      1   2  0.100000    24.803600000    28.213800000    31.381800000   0   0   0 # h
    201      1   2  0.100000    22.642800000    31.293500000    35.490400000   0   0   0 # h
    202      1   2  0.100000    20.644400000    32.287400000    36.118300000   0   0   0 # h
    203      1   2  0.100000    18.586900000    30.023300000    33.100900000   0   0   0 # h
    204      1   2  0.100000    20.679500000    28.888000000    32.542300000   0   0   0 # h
    205      1   2  0.100000    16.593900000    29.803400000    38.614700000   0   0   0 # h
    206      1   2  0.100000    17.969500000    31.568500000    37.493600000   0   0   0 # h
    207      1   2  0.100000    16.312800000    30.368600000    33.752200000   0   0   0 # h
    208      1   2  0.100000    15.064700000    28.659300000    34.849300000   0   0   0 # h
    209      1   2  0.100000    19.332500000    32.709300000    32.207800000   0   0   0 # h
    210      1   2  0.100000    18.275600000    33.341300000    30.086000000   0   0   0 # h
    211      1   2  0.100000    14.590200000    33.735800000    32.060000000   0   0   0 # h
    212      1   2  0.100000    15.571600000    33.159000000    34.147100000   0   0   0 # h
    213      1   2  0.100000    16.512200000    33.614900000    36.448900000   0   0   0 # h
    214      1   2  0.100000    16.738700000    35.800900000    37.338800000   0   0   0 # h
    215      1   2  0.100000    20.386100000    36.338900000    35.224100000   0   0   0 # h
    216      1   2  0.100000    20.160800000    34.010500000    34.336600000   0   0   0 # h
    217      1   1  0.000000    36.258600000    21.977200000    10.755100000   0   0   0 # cp
    218      1   1 -0.100000    36.285400000    22.264800000     9.417260000   0   0   0 # cp
    219      1   1 -0.100000    35.211000000    22.047900000     8.634530000   0   0   0 # cp
    220      1   1  0.000000    34.047700000    21.517200000     9.161680000   0   0   0 # cp
    221      1   1 -0.100000    34.027400000    21.168600000    10.502400000   0   0   0 # cp
    222      1   1 -0.100000    35.135500000    21.381400000    11.287400000   0   0   0 # cp
    223      1   2  0.100000    37.156500000    22.736400000     8.914270000   0   0   0 # h
    224      1   2  0.100000    35.309400000    22.429800000     7.617830000   0   0   0 # h
    225      1   2  0.100000    33.100300000    20.870200000    10.992400000   0   0   0 # h
    226      1   2  0.100000    35.082400000    21.172500000    12.331600000   0   0   0 # h
    227      1   1 -0.100000    31.806100000    19.280800000     9.051140000   0   0   0 # cp
    228      1   1  0.000000    31.517900000    20.548900000     8.603090000   0   0   0 # cp
    229      1   1 -0.100000    30.223300000    20.827300000     8.249220000   0   0   0 # cp
    230      1   1 -0.100000    29.220700000    19.915200000     8.355320000   0   0   0 # cp
    231      1   1  0.000000    29.513000000    18.640500000     8.797240000   0   0   0 # cp
    232      1   1 -0.100000    30.801000000    18.345500000     9.156990000   0   0   0 # cp
    233      1   3  0.000000    32.652600000    21.633200000     8.331110000   0   0   0 # c
    234      1   1  0.000000    32.865400000    21.384600000     6.799790000   0   0   0 # cp
    235      1   1 -0.100000    32.206400000    22.119000000     5.828350000   0   0   0 # cp
    236      1   1 -0.100000    32.420700000    21.924300000     4.501800000   0   0   0 # cp
    237      1   1  0.000000    33.253200000    20.887400000     4.097700000   0   0   0 # cp
    238      1   1 -0.100000    33.917300000    20.149500000     5.042900000   0   0   0 # cp
    239      1   1 -0.100000    33.695400000    20.359200000     6.366880000   0   0   0 # cp
    240      1   1 -0.100000    31.514400000    23.421400000     9.900470000   0   0   0 # cp
    241      1   1 -0.100000    31.543000000    24.656100000    10.501400000   0   0   0 # cp
    242      1   1  0.000000    32.405300000    25.638300000    10.079000000   0   0   0 # cp
    243      1   1 -0.100000    33.009400000    25.458200000     8.829790000   0   0   0 # cp
    244      1   1 -0.100000    32.962300000    24.244500000     8.191530000   0   0   0 # cp
    245      1   1  0.000000    32.297700000    23.174100000     8.756820000   0   0   0 # cp
    246      1   3  0.000000    32.582000000    27.003800000    10.880000000   0   0   0 # c
    247      1   1  0.000000    29.277600000    29.442800000     9.353720000   0   0   0 # cp
    248      1   1 -0.100000    29.115100000    28.706600000    10.494400000   0   0   0 # cp
    249      1   1 -0.100000    30.128800000    27.875200000    10.927800000   0   0   0 # cp
    250      1   1  0.000000    31.351900000    27.803800000    10.284100000   0   0   0 # cp
    251      1   1 -0.100000    31.457400000    28.462000000     9.073070000   0   0   0 # cp
    252      1   1 -0.100000    30.453400000    29.284600000     8.622570000   0   0   0 # cp
    253      1   1  0.000000    33.986800000    27.718400000    10.628900000   0   0   0 # cp
    254      1   1 -0.100000    35.175800000    27.014600000    10.608200000   0   0   0 # cp
    255      1   1 -0.100000    36.409400000    27.663800000    10.658500000   0   0   0 # cp
    256      1   1  0.000000    36.458700000    29.038300000    10.648600000   0   0   0 # cp
    257      1   1 -0.100000    35.290400000    29.751000000    10.606100000   0   0   0 # cp
    258      1   1 -0.100000    34.085000000    29.103100000    10.609900000   0   0   0 # cp
    259      1   1 -0.100000    32.346000000    28.008900000    13.261500000   0   0   0 # cp
    260      1   1 -0.100000    32.328200000    27.906700000    14.614700000   0   0   0 # cp
    261      1   1  0.000000    32.543100000    26.713400000    15.238100000   0   0   0 # cp
    262      1   1 -0.100000    32.929000000    25.630500000    14.489600000   0   0   0 # cp
    263      1   1 -0.100000    32.993200000    25.725300000    13.107300000   0   0   0 # cp
    264      1   1  0.000000    32.606200000    26.885800000    12.461900000   0   0   0 # cp
    265      1   2  0.100000    32.821700000    18.993900000     9.283210000   0   0   0 # h
    266      1   2  0.100000    29.963100000    21.796000000     7.906400000   0   0   0 # h
    267      1   2  0.100000    28.234200000    20.226600000     7.992100000   0   0   0 # h
    268      1   2  0.100000    31.050300000    17.348800000     9.485000000   0   0   0 # h
    269      1   2  0.100000    31.572600000    22.919700000     6.130060000   0   0   0 # h
    270      1   2  0.100000    31.936600000    22.549300000     3.777590000   0   0   0 # h
    271      1   2  0.100000    34.633800000    19.359000000     4.806790000   0   0   0 # h
    272      1   2  0.100000    34.204400000    19.724100000     7.104790000   0   0   0 # h
    273      1   2  0.100000    30.951400000    22.595200000    10.359000000   0   0   0 # h
    274      1   2  0.100000    30.920300000    24.799700000    11.369200000   0   0   0 # h
    275      1   2  0.100000    33.615100000    26.231900000     8.389810000   0   0   0 # h
    276      1   2  0.100000    33.580500000    24.107900000     7.316760000   0   0   0 # h
    277      1   2  0.100000    28.221500000    28.761400000    11.085800000   0   0   0 # h
    278      1   2  0.100000    29.915900000    27.314200000    11.823800000   0   0   0 # h
    279      1   2  0.100000    32.327400000    28.373800000     8.480030000   0   0   0 # h
    280      1   2  0.100000    30.627000000    29.891300000     7.756830000   0   0   0 # h
    281      1   2  0.100000    35.179400000    25.938000000    10.644600000   0   0   0 # h
    282      1   2  0.100000    37.328600000    27.084700000    10.754900000   0   0   0 # h
    283      1   2  0.100000    35.311400000    30.825000000    10.652600000   0   0   0 # h
    284      1   2  0.100000    33.214500000    29.723200000    10.688100000   0   0   0 # h
    285      1   2  0.100000    32.079800000    28.931500000    12.786100000   0   0   0 # h
    286      1   2  0.100000    32.195600000    28.812300000    15.166600000   0   0   0 # h
    287      1   2  0.100000    33.220500000    24.673200000    14.925500000   0   0   0 # h
    288      1   2  0.100000    33.289300000    24.819500000    12.601000000   0   0   0 # h
    289      1   1  0.000000    30.859600000    28.440400000    25.673900000   0   0   0 # cp
    290      1   1 -0.100000    29.543400000    28.293600000    25.310700000   0   0   0 # cp
    291      1   1 -0.100000    28.698400000    29.362000000    25.297900000   0   0   0 # cp
    292      1   1  0.000000    29.126000000    30.643300000    25.594800000   0   0   0 # cp
    293      1   1 -0.100000    30.482700000    30.766600000    25.947100000   0   0   0 # cp
    294      1   1 -0.100000    31.323500000    29.679000000    25.967700000   0   0   0 # cp
    295      1   2  0.100000    29.121500000    27.380300000    24.953800000   0   0   0 # h
    296      1   2  0.100000    27.677500000    29.206500000    24.988200000   0   0   0 # h
    297      1   2  0.100000    30.890400000    31.726400000    26.195500000   0   0   0 # h
    298      1   2  0.100000    32.360600000    29.843800000    26.215100000   0   0   0 # h
    299      1   1 -0.100000    28.685800000    33.016400000    27.526900000   0   0   0 # cp