LAMMPS data file. msi2lmp v3.9.11 / 6 Sep 2024 / CGCMM for tfs_0_opt

   1080 atoms
   1188 bonds
   2088 angles
   3348 dihedrals
    504 impropers

   4 atom types
   6 bond types
   9 angle types
  13 dihedral types
   3 improper types

   -11.082932506    28.856167494 xlo xhi
     2.092740246    37.615903326 ylo yhi
    -0.328059494    30.248887364 zlo zhi
   -20.753985330    -1.251410007     3.920891619 xy xz yz

Masses

   1  12.011150 # cp
   2   1.007970 # h
   3  12.011150 # c
   4  12.011150 # c2

Pair Coeffs # lj/cut/coul/long

   1   0.1479999981   3.6170487995 # cp
   2   0.0380000011   2.4499714540 # h
   3   0.1599999990   3.4745050026 # c
   4   0.0389999952   3.8754094636 # c2

Bond Coeffs # harmonic

   1   480.0000     1.3400 # cp-cp
   2   283.0924     1.5100 # cp-c2
   3   363.4164     1.0800 # cp-h
   4   283.0924     1.5100 # cp-c
   5   322.7158     1.5260 # c2-c2
   6   340.6175     1.1050 # h-c2

Angle Coeffs # harmonic

   1    90.0000   120.0000 # cp-cp-cp
   2    44.2000   120.0000 # cp-cp-c2
   3    37.0000   120.0000 # cp-cp-h
   4    44.2000   120.0000 # cp-cp-c
   5    46.6000   110.5000 # cp-c-cp
   6    46.6000   110.5000 # cp-c2-c2
   7    44.4000   110.0000 # cp-c2-h
   8    44.4000   110.0000 # h-c2-c2
   9    39.5000   106.4000 # h-c2-h

Dihedral Coeffs # harmonic

  1     3.0000  -1   2 # cp-cp-cp-cp
  2     3.0000  -1   2 # cp-cp-cp-h
  3     3.0000  -1   2 # cp-cp-cp-c2
  4     3.0000  -1   2 # h-cp-cp-c2
  5     0.0000   1   2 # cp-cp-c2-c2
  6     0.0000   1   2 # cp-cp-c2-h
  7     3.0000  -1   2 # h-cp-cp-h
  8     3.0000  -1   2 # cp-cp-cp-c
  9     3.0000  -1   2 # h-cp-cp-c
 10     0.6750   1   4 # cp-cp-c-cp
 11     0.1581   1   3 # cp-c2-c2-cp
 12     0.1581   1   3 # cp-c2-c2-h
 13     0.1581   1   3 # h-c2-c2-h

Improper Coeffs # cvff

    1     0.3700  -1   2 # cp-cp-cp-c2
    2     0.3700  -1   2 # cp-cp-cp-h
    3     0.3700  -1   2 # cp-cp-cp-c

Atoms # full

      1      1   1  0.000000    18.008500000     6.067930000     0.485564000   0   0   0 # cp
      2      1   1 -0.100000    16.393900000    10.588700000    29.895300000   0   0   0 # cp
      3      1   1 -0.100000    15.097400000    10.556800000    29.444600000   0   0   0 # cp
      4      1   1  0.000000    14.116900000     9.884190000    30.172200000   0   0   0 # cp
      5      1   1 -0.100000    15.719400000     5.466490000     0.843198000   0   0   0 # cp
      6      1   1 -0.100000    17.029100000     5.446100000     1.249080000   0   0   0 # cp
      7      1   2  0.100000    17.145900000    11.058800000    29.252400000   0   0   0 # h
      8      1   2  0.100000    14.794900000    11.053800000    28.544800000   0   0   0 # h
      9      1   2  0.100000    14.993400000     4.948280000     1.497270000   0   0   0 # h
     10      1   2  0.100000    17.243600000     4.910890000     2.138780000   0   0   0 # h
     11      1   1 -0.100000    12.995400000     7.122690000    29.685800000   0   0   0 # cp
     12      1   1  0.000000    12.139400000     8.179510000    29.920500000   0   0   0 # cp
     13      1   1 -0.100000    10.807300000     7.884370000    30.133100000   0   0   0 # cp
     14      1   1 -0.100000    10.410300000     6.565780000    30.203900000   0   0   0 # cp
     15      1   1  0.000000    -9.484952031    41.054669244    29.984900000   0  -1   0 # cp
     16      1   1 -0.100000    -8.185262031    41.345169244    29.696900000   0  -1   0 # cp
     17      1   3  0.000000    12.615100000     9.660810000    29.648300000   0   0   0 # c
     18      1   1  0.000000    12.305000000     9.786590000    28.101900000   0   0   0 # cp
     19      1   1 -0.100000    11.054700000    10.198700000    27.683100000   0   0   0 # cp
     20      1   1 -0.100000    10.809200000    10.455800000    26.395900000   0   0   0 # cp
     21      1   1  0.000000    11.800400000    10.257100000    25.439500000   0   0   0 # cp
     22      1   1 -0.100000    13.014100000     9.752610000    25.811000000   0   0   0 # cp
     23      1   1 -0.100000    13.248900000     9.425530000    27.135600000   0   0   0 # cp
     24      1   1 -0.100000    12.529500000     6.795570000     1.065770000   0   0   0 # cp
     25      1   1 -0.100000    11.952500000     7.900220000     1.682670000   0   0   0 # cp
     26      1   1  0.000000    12.150900000     9.199740000     1.213280000   0   0   0 # cp
     27      1   1 -0.100000    12.762410007     9.288208381    -0.013846859   0   0   1 # cp
     28      1   1 -0.100000    12.080200000    12.138200000    29.934800000   0   0   0 # cp
     29      1   1  0.000000    13.204410007     6.932308381    -0.115746859   0   0   1 # cp
     30      1   3  0.000000    11.524400000    10.485500000     1.960090000   0   0   0 # c
     31      1   1  0.000000     6.571810000    14.749900000    30.219000000   0   0   0 # cp
     32      1   1 -0.100000     7.879240000    10.024300000     0.741924000   0   0   0 # cp
     33      1   1 -0.100000     9.039410000     9.882390000     1.459220000   0   0   0 # cp
     34      1   1  0.000000    10.173500000    10.596100000     1.119810000   0   0   0 # cp
     35      1   1 -0.100000    10.108370007    11.349808381    -0.059146859   0   0   1 # cp
     36      1   1 -0.100000     7.686240000    15.419100000    29.801700000   0   0   0 # cp
     37      1   1  0.000000    12.413600000    11.851300000     1.884360000   0   0   0 # cp
     38      1   1 -0.100000    13.812100000    11.807500000     1.780700000   0   0   0 # cp
     39      1   1 -0.100000    14.533700000    12.953900000     1.642270000   0   0   0 # cp
     40      1   1  0.000000    13.932500000    14.181100000     1.692400000   0   0   0 # cp
     41      1   1 -0.100000    12.566200000    14.263300000     1.887880000   0   0   0 # cp
     42      1   1 -0.100000    11.844600000    13.099200000     1.978570000   0   0   0 # cp
     43      1   1 -0.100000    10.340500000    10.701800000     4.300920000   0   0   0 # cp
     44      1   1 -0.100000    10.206900000    10.282900000     5.589960000   0   0   0 # cp
     45      1   1  0.000000    11.219200000     9.531260000     6.197070000   0   0   0 # cp
     46      1   1 -0.100000    12.381800000     9.286190000     5.522780000   0   0   0 # cp
     47      1   1 -0.100000    12.480500000     9.630800000     4.216120000   0   0   0 # cp
     48      1   1  0.000000    11.447700000    10.289200000     3.556200000   0   0   0 # cp
     49      1   2  0.100000    14.064500000     7.299510000    29.476500000   0   0   0 # h
     50      1   2  0.100000    10.026900000     8.638000000    30.191900000   0   0   0 # h
     51      1   2  0.100000    10.635030007     2.439468381    -0.142946859   0   0   1 # h
     52      1   2  0.100000    -7.479762031    40.555569244    29.603400000   0  -1   0 # h
     53      1   2  0.100000    10.249700000    10.372300000    28.378600000   0   0   0 # h
     54      1   2  0.100000     9.866150000    10.911700000    26.134700000   0   0   0 # h
     55      1   2  0.100000    13.831000000     9.602070000    25.096000000   0   0   0 # h
     56      1   2  0.100000    14.202100000     8.990010000    27.455300000   0   0   0 # h
     57      1   2  0.100000    12.363300000     5.830470000     1.536370000   0   0   0 # h
     58      1   2  0.100000    11.369600000     7.734870000     2.585650000   0   0   0 # h
     59      1   2  0.100000    11.619200000    14.148800000    30.060400000   0   0   0 # h
     60      1   2  0.100000    12.617100000    12.279500000    29.039200000   0   0   0 # h
     61      1   2  0.100000     7.001260000     9.444920000     1.017240000   0   0   0 # h
     62      1   2  0.100000     9.022760000     9.270100000     2.340290000   0   0   0 # h
     63      1   2  0.100000     9.716320000    15.838600000    30.145900000   0   0   0 # h
     64      1   2  0.100000     7.669540000    16.115800000    29.010000000   0   0   0 # h
     65      1   2  0.100000    14.331600000    10.846100000     1.835020000   0   0   0 # h
     66      1   2  0.100000    15.597100000    12.904700000     1.541790000   0   0   0 # h
     67      1   2  0.100000    12.042300000    15.183600000     1.937760000   0   0   0 # h
     68      1   2  0.100000    10.743700000    13.191200000     2.060500000   0   0   0 # h
     69      1   2  0.100000     9.566960000    11.286700000     3.885430000   0   0   0 # h
     70      1   2  0.100000     9.274900000    10.494500000     6.093670000   0   0   0 # h
     71      1   2  0.100000    13.217700000     8.702670000     5.943670000   0   0   0 # h
     72      1   2  0.100000    13.407600000     9.386830000     3.628110000   0   0   0 # h
     73      1   1  0.000000    17.727400000     8.616750000    15.102600000   0   0   0 # cp
     74      1   1 -0.100000    17.222700000     9.262760000    14.019500000   0   0   0 # cp
     75      1   1 -0.100000    15.902800000     9.091940000    13.628000000   0   0   0 # cp
     76      1   1  0.000000    15.072200000     8.229670000    14.315300000   0   0   0 # cp
     77      1   1 -0.100000    15.606500000     7.622800000    15.438600000   0   0   0 # cp
     78      1   1 -0.100000    16.872900000     7.854580000    15.873600000   0   0   0 # cp
     79      1   2  0.100000    17.873300000     9.931370000    13.441000000   0   0   0 # h
     80      1   2  0.100000    15.586100000     9.639830000    12.749500000   0   0   0 # h
     81      1   2  0.100000    15.015100000     6.933720000    16.018400000   0   0   0 # h
     82      1   2  0.100000    17.229500000     7.367890000    16.788600000   0   0   0 # h
     83      1   1 -0.100000    14.012500000     5.438460000    13.801200000   0   0   0 # cp
     84      1   1  0.000000    13.080900000     6.481560000    13.978900000   0   0   0 # cp
     85      1   1 -0.100000    11.757500000     6.139170000    14.203900000   0   0   0 # cp
     86      1   1 -0.100000    11.394900000     4.863540000    14.468300000   0   0   0 # cp
     87      1   1  0.000000    -8.416092031    39.395769244    14.453600000   0  -1   0 # cp
     88      1   1 -0.100000    13.631500000     4.137630000    14.091000000   0   0   0 # cp
     89      1   3  0.000000    13.540100000     8.027700000    13.908900000   0   0   0 # c
     90      1   1  0.000000    13.100900000     8.388570000    12.457500000   0   0   0 # cp
     91      1   1 -0.100000    11.834800000     8.966660000    12.233800000   0   0   0 # cp
     92      1   1 -0.100000    11.477100000     9.470840000    11.015400000   0   0   0 # cp
     93      1   1  0.000000    12.327900000     9.389250000     9.948650000   0   0   0 # cp
     94      1   1 -0.100000    13.500500000     8.704530000    10.137000000   0   0   0 # cp
     95      1   1 -0.100000    13.892600000     8.165830000    11.358700000   0   0   0 # cp
     96      1   1 -0.100000    12.234200000     8.607800000    16.094000000   0   0   0 # cp
     97      1   1 -0.100000    11.564000000     9.497790000    16.901000000   0   0   0 # cp
     98      1   1  0.000000    11.690800000    10.857000000    16.731200000   0   0   0 # cp
     99      1   1 -0.100000    12.392200000    11.292400000    15.633300000   0   0   0 # cp
    100      1   1 -0.100000    12.991900000    10.398900000    14.802800000   0   0   0 # cp
    101      1   1  0.000000    12.893600000     9.036490000    14.980600000   0   0   0 # cp
    102      1   3  0.000000    10.986400000    11.894000000    17.678400000   0   0   0 # c
    103      1   1  0.000000     7.430450000    12.402000000    15.144400000   0   0   0 # cp
    104      1   1 -0.100000     7.475640000    11.418400000    16.086500000   0   0   0 # cp
    105      1   1 -0.100000     8.543300000    11.277500000    16.954200000   0   0   0 # cp
    106      1   1  0.000000     9.633930000    12.127300000    16.852500000   0   0   0 # cp
    107      1   1 -0.100000     9.587830000    13.098400000    15.838200000   0   0   0 # cp
    108      1   1 -0.100000     8.495690000    13.228200000    15.005200000   0   0   0 # cp
    109      1   1  0.000000    11.798800000    13.229000000    17.981700000   0   0   0 # cp
    110      1   1 -0.100000    13.184700000    13.224700000    18.044400000   0   0   0 # cp
    111      1   1 -0.100000    13.903000000    14.350700000    18.259000000   0   0   0 # cp
    112      1   1  0.000000    13.272200000    15.544800000    18.450900000   0   0   0 # cp
    113      1   1 -0.100000    11.883000000    15.592600000    18.413500000   0   0   0 # cp
    114      1   1 -0.100000    11.171500000    14.445200000    18.187700000   0   0   0 # cp
    115      1   1 -0.100000     9.706030000    11.715100000    19.906900000   0   0   0 # cp
    116      1   1 -0.100000     9.538310000    11.222300000    21.177800000   0   0   0 # cp
    117      1   1  0.000000    10.585100000    10.528800000    21.754600000   0   0   0 # cp
    118      1   1 -0.100000    11.724900000    10.229500000    21.042400000   0   0   0 # cp
    119      1   1 -0.100000    11.858600000    10.682900000    19.762400000   0   0   0 # cp
    120      1   1  0.000000    10.842800000    11.408700000    19.163900000   0   0   0 # cp
    121      1   2  0.100000    15.072600000     5.609600000    13.654200000   0   0   0 # h
    122      1   2  0.100000    10.972300000     6.887540000    14.312100000   0   0   0 # h
    123      1   2  0.100000    10.409500000     4.674200000    14.795900000   0   0   0 # h
    124      1   2  0.100000    -6.391642031    38.887069244    14.027800000   0  -1   0 # h
    125      1   2  0.100000    11.153900000     8.947510000    13.067900000   0   0   0 # h
    126      1   2  0.100000    10.464100000     9.857790000    10.843300000   0   0   0 # h
    127      1   2  0.100000    14.161200000     8.597380000     9.292320000   0   0   0 # h
    128      1   2  0.100000    14.822100000     7.629170000    11.440900000   0   0   0 # h
    129      1   2  0.100000    12.226400000     7.573310000    16.336600000   0   0   0 # h
    130      1   2  0.100000    11.009300000     9.086740000    17.722900000   0   0   0 # h
    131      1   2  0.100000    12.487800000    12.339400000    15.429500000   0   0   0 # h
    132      1   2  0.100000    13.588100000    10.767600000    13.972300000   0   0   0 # h
    133      1   2  0.100000     6.728540000    10.637000000    16.166900000   0   0   0 # h
    134      1   2  0.100000     8.585700000    10.448300000    17.656200000   0   0   0 # h
    135      1   2  0.100000    10.463800000    13.677000000    15.617600000   0   0   0 # h
    136      1   2  0.100000     8.520000000    13.916400000    14.170800000   0   0   0 # h
    137      1   2  0.100000    13.756700000    12.298400000    18.019200000   0   0   0 # h
    138      1   2  0.100000    14.975100000    14.251000000    18.338200000   0   0   0 # h
    139      1   2  0.100000    11.331400000    16.492800000    18.448800000   0   0   0 # h
    140      1   2  0.100000    10.111700000    14.530500000    18.182700000   0   0   0 # h
    141      1   2  0.100000     8.903660000    12.307900000    19.471100000   0   0   0 # h
    142      1   2  0.100000     8.599500000    11.419900000    21.708600000   0   0   0 # h
    143      1   2  0.100000    12.508400000     9.671430000    21.500200000   0   0   0 # h
    144      1   2  0.100000    12.747200000    10.502300000    19.204700000   0   0   0 # h
    145      1   1  0.000000    -2.357980000    29.038100000     0.324147000   0   0   0 # cp
    146      1   1 -0.100000    -2.951690000    28.378000000     1.360030000   0   0   0 # cp
    147      1   1 -0.100000    -4.307140000    28.439200000     1.506540000   0   0   0 # cp
    148      1   1  0.000000    -5.078710000    29.299600000     0.712562000   0   0   0 # cp
    149      1   1 -0.100000    -5.708430000    33.828100000    30.202800000   0   0   0 # cp
    150      1   1 -0.100000    -4.359760000    33.668900000    29.988900000   0   0   0 # cp
    151      1   2  0.100000    -2.320240000    27.806300000     2.018160000   0   0   0 # h
    152      1   2  0.100000    -4.742200000    27.817700000     2.267760000   0   0   0 # h
    153      1   2  0.100000    -6.279290000    34.520400000    29.565800000   0   0   0 # h
    154      1   2  0.100000    -3.898440000    34.311200000    29.217200000   0   0   0 # h
    155      1   1 -0.100000    -6.306050000    32.058500000     1.165130000   0   0   0 # cp
    156      1   1  0.000000    -7.139760000    31.014600000     0.804209000   0   0   0 # cp
    157      1   1 -0.100000    -8.445570000    31.337400000     0.421631000   0   0   0 # cp
    158      1   1 -0.100000    -8.914590000    32.621700000     0.430293000   0   0   0 # cp
    159      1   1  0.000000    -8.087000000    33.625600000     0.825827000   0   0   0 # cp
    160      1   1 -0.100000    -6.803910000    33.349700000     1.231120000   0   0   0 # cp
    161      1   3  0.000000    -6.633530000    29.520800000     0.977697000   0   0   0 # c
    162      1   1  0.000000    -7.150710000    29.278400000     2.478570000   0   0   0 # cp
    163      1   1 -0.100000    -8.447150000    28.923100000     2.719330000   0   0   0 # cp
    164      1   1 -0.100000    -8.962610000    28.800200000     3.966200000   0   0   0 # cp
    165      1   1  0.000000    -8.158750000    28.987000000     5.061880000   0   0   0 # cp
    166      1   1 -0.100000    -6.872970000    29.441100000     4.879060000   0   0   0 # cp
    167      1   1 -0.100000    -6.390650000    29.628300000     3.600970000   0   0   0 # cp
    168      1   1 -0.100000    -8.872700000    32.678600000    29.215600000   0   0   0 # cp
    169      1   1 -0.100000    -9.356360000    31.687400000    28.388700000   0   0   0 # cp
    170      1   1  0.000000    -9.533190000    30.399200000    28.827900000   0   0   0 # cp
    171      1   1 -0.100000    -9.135910000    30.095300000    30.110000000   0   0   0 # cp
    172      1   1 -0.100000    -7.361330000    27.148600000     0.358956000   0   0   0 # cp
    173      1   1  0.000000    -7.270009993    28.474508381    -0.050346859   0   0   1 # cp
    174      1   3  0.000000   -10.249400000    29.327800000    27.877300000   0   0   0 # c
    175      1   1  0.000000   -14.207200000    30.213700000    29.527800000   0   0   0 # cp
    176      1   1 -0.100000   -13.729500000    30.917200000    28.458100000   0   0   0 # cp
    177      1   1 -0.100000   -12.510200000    30.621900000    27.911000000   0   0   0 # cp
    178      1   1  0.000000   -11.734900000    29.613500000    28.439300000   0   0   0 # cp
    179      1   1 -0.100000   -12.229400000    28.904400000    29.546200000   0   0   0 # cp
    180      1   1 -0.100000   -13.457300000    29.187700000    30.040600000   0   0   0 # cp
    181      1   1  0.000000    -9.719600000    27.818000000    28.058300000   0   0   0 # cp
    182      1   1 -0.100000    -8.405820000    27.544800000    28.420700000   0   0   0 # cp
    183      1   1 -0.100000    -7.987470000    26.281400000    28.657600000   0   0   0 # cp
    184      1   1  0.000000    -8.860200000    25.238600000    28.528800000   0   0   0 # cp
    185      1   1 -0.100000   -10.161100000    25.462900000    28.121000000   0   0   0 # cp
    186      1   1 -0.100000   -10.570800000    26.732000000    27.852400000   0   0   0 # cp
    187      1   1 -0.100000   -11.031100000    29.234800000    25.382500000   0   0   0 # cp
    188      1   1 -0.100000   -10.783400000    29.381400000    24.039600000   0   0   0 # cp
    189      1   1  0.000000    -9.542310000    29.723900000    23.582700000   0   0   0 # cp
    190      1   1 -0.100000    -8.514730000    29.916000000    24.494000000   0   0   0 # cp
    191      1   1 -0.100000    -8.736230000    29.774400000    25.846000000   0   0   0 # cp
    192      1   1  0.000000   -10.006900000    29.466300000    26.330600000   0   0   0 # cp
    193      1   2  0.100000    -5.294430000    31.868700000     1.480680000   0   0   0 # h
    194      1   2  0.100000    -9.115088765    30.540004532     0.112223126   0   0   0 # h
    195      1   2  0.100000    -9.956088765    32.802604532     0.104623126   0   0   0 # h
    196      1   2  0.100000    -6.197240000    34.178600000     1.602200000   0   0   0 # h
    197      1   2  0.100000    -9.155780000    28.755600000     1.890720000   0   0   0 # h
    198      1   2  0.100000    -9.957900000    28.417700000     4.031820000   0   0   0 # h
    199      1   2  0.100000    -6.219350000    29.648000000     5.725580000   0   0   0 # h
    200      1   2  0.100000    -5.410330000    30.050900000     3.486650000   0   0   0 # h
    201      1   2  0.100000    -8.773750000    33.679500000    28.853300000   0   0   0 # h
    202      1   2  0.100000    -9.626800000    31.955800000    27.383800000   0   0   0 # h
    203      1   2  0.100000    -7.960119993    25.221108381    -0.016246859   0   0   1 # h
    204      1   2  0.100000    -7.098810000    26.812800000     1.348440000   0   0   0 # h
    205      1   2  0.100000   -14.284800000    31.729700000    28.139200000   0   0   0 # h
    206      1   2  0.100000   -12.146400000    31.249200000    27.117900000   0   0   0 # h
    207      1   2  0.100000   -11.673200000    28.116800000    30.028400000   0   0   0 # h
    208      1   2  0.100000   -12.583000000    24.679000000     0.297901000   0   0   0 # h
    209      1   2  0.100000    -7.627950000    28.314900000    28.499000000   0   0   0 # h
    210      1   2  0.100000    -6.965180000    26.160200000    28.986200000   0   0   0 # h
    211      1   2  0.100000   -10.951200000    24.699500000    28.125700000   0   0   0 # h
    212      1   2  0.100000   -11.599200000    26.919800000    27.574300000   0   0   0 # h
    213      1   2  0.100000   -12.001700000    28.921200000    25.727600000   0   0   0 # h
    214      1   2  0.100000   -11.582700000    29.190800000    23.319500000   0   0   0 # h
    215      1   2  0.100000    -7.519710000    30.163500000    24.153900000   0   0   0 # h
    216      1   2  0.100000    -7.884970000    29.856800000    26.459500000   0   0   0 # h
    217      1   1  0.000000    -3.410770000    30.235600000    15.247500000   0   0   0 # cp
    218      1   1 -0.100000    -4.087770000    29.739000000    16.344800000   0   0   0 # cp
    219      1   1 -0.100000    -5.384450000    30.105800000    16.600500000   0   0   0 # cp
    220      1   1  0.000000    -6.030280000    30.993300000    15.746400000   0   0   0 # cp
    221      1   1 -0.100000    -5.365340000    31.332500000    14.573800000   0   0   0 # cp
    222      1   1 -0.100000    -4.070990000    31.010400000    14.343100000   0   0   0 # cp
    223      1   2  0.100000    -3.559640000    29.114000000    17.022800000   0   0   0 # h
    224      1   2  0.100000    -5.839860000    29.686000000    17.461600000   0   0   0 # h
    225      1   2  0.100000    -5.905390000    31.922700000    13.842100000   0   0   0 # h
    226      1   2  0.100000    -3.636610000    31.394700000    13.448500000   0   0   0 # h
    227      1   1 -0.100000    -6.967540000    33.921700000    15.579200000   0   0   0 # cp
    228      1   1  0.000000    -7.927090000    32.913600000    15.496400000   0   0   0 # cp
    229      1   1 -0.100000    -9.164720000    33.264700000    15.021100000   0   0   0 # cp
    230      1   1 -0.100000    -9.407620000    34.537300000    14.568300000   0   0   0 # cp
    231      1   1  0.000000    -8.408050000    35.490300000    14.564600000   0   0   0 # cp
    232      1   1 -0.100000    -7.173280000    35.171500000    15.077700000   0   0   0 # cp
    233      1   3  0.000000    -7.555170000    31.415000000    15.940100000   0   0   0 # c
    234      1   1  0.000000    -8.062320000    31.474800000    17.479400000   0   0   0 # cp
    235      1   1 -0.100000    -9.333150000    31.024500000    17.824200000   0   0   0 # cp
    236      1   1 -0.100000    -9.729710000    30.946300000    19.135800000   0   0   0 # cp
    237      1   1  0.000000    -8.870880000    31.387400000    20.118700000   0   0   0 # cp
    238      1   1 -0.100000    -7.645630000    31.921900000    19.803100000   0   0   0 # cp
    239      1   1 -0.100000    -7.252760000    31.960700000    18.498200000   0   0   0 # cp
    240      1   1 -0.100000    -8.449260000    30.426100000    13.676200000   0   0   0 # cp
    241      1   1 -0.100000    -8.928560000    29.379600000    12.908200000   0   0   0 # cp
    242      1   1  0.000000    -9.193850000    28.156600000    13.472800000   0   0   0 # cp
    243      1   1 -0.100000    -8.937310000    27.987500000    14.810500000   0   0   0 # cp
    244      1   1 -0.100000    -8.495930000    29.020100000    15.582800000   0   0   0 # cp
    245      1   1  0.000000    -8.228650000    30.281500000    15.068100000   0   0   0 # cp
    246      1   3  0.000000    -9.839480000    27.015700000    12.593000000   0   0   0 # c
    247      1   1  0.000000   -13.971800000    27.830200000    13.955600000   0   0   0 # cp
    248      1   1 -0.100000   -13.506700000    28.308100000    12.741900000   0   0   0 # cp
    249      1   1 -0.100000   -12.214600000    28.071500000    12.308900000   0   0   0 # cp
    250      1   1  0.000000   -11.374600000    27.250900000    12.995500000   0   0   0 # cp
    251      1   1 -0.100000   -11.871600000    26.717000000    14.210600000   0   0   0 # cp
    252      1   1 -0.100000   -13.140000000    26.984700000    14.665300000   0   0   0 # cp
    253      1   1  0.000000    -9.238390000    25.569400000    12.942400000   0   0   0 # cp
    254      1   1 -0.100000    -7.922900000    25.397400000    13.297200000   0   0   0 # cp
    255      1   1 -0.100000    -7.421260000    24.166900000    13.579800000   0   0   0 # cp
    256      1   1  0.000000    -8.216240000    23.059400000    13.535700000   0   0   0 # cp
    257      1   1 -0.100000    -9.549080000    23.200300000    13.217800000   0   0   0 # cp
    258      1   1 -0.100000   -10.053300000    24.453900000    12.954000000   0   0   0 # cp
    259      1   1 -0.100000   -10.335100000    26.594000000    10.111400000   0   0   0 # cp
    260      1   1 -0.100000    -9.989740000    26.594300000     8.819440000   0   0   0 # cp
    261      1   1  0.000000    -8.768170000    27.030300000     8.386630000   0   0   0 # cp
    262      1   1 -0.100000    -7.828130000    27.387900000     9.337000000   0   0   0 # cp
    263      1   1 -0.100000    -8.173240000    27.377300000    10.653200000   0   0   0 # cp
    264      1   1  0.000000    -9.445750000    27.043200000    11.076400000   0   0   0 # cp
    265      1   2  0.100000    -6.044420000    33.740900000    16.041300000   0   0   0 # h
    266      1   2  0.100000    -9.939120000    32.486600000    14.991900000   0   0   0 # h
    267      1   2  0.100000   -10.397200000    34.796200000    14.243600000   0   0   0 # h
    268      1   2  0.100000    -6.389030000    35.905800000    15.081200000   0   0   0 # h
    269      1   2  0.100000   -10.067400000    30.691700000    17.095800000   0   0   0 # h
    270      1   2  0.100000   -10.690900000    30.497600000    19.378100000   0   0   0 # h
    271      1   2  0.100000    -6.999510000    32.236600000    20.591000000   0   0   0 # h
    272      1   2  0.100000    -6.225530000    32.233800000    18.272900000   0   0   0 # h
    273      1   2  0.100000    -8.226060000    31.381100000    13.166200000   0   0   0 # h
    274      1   2  0.100000    -9.130810000    29.609900000    11.869100000   0   0   0 # h
    275      1   2  0.100000    -9.107260000    27.068200000    15.343300000   0   0   0 # h
    276      1   2  0.100000    -8.332790000    28.765500000    16.624200000   0   0   0 # h
    277      1   2  0.100000   -14.129500000    28.954500000    12.132400000   0   0   0 # h
    278      1   2  0.100000   -11.843200000    28.554100000    11.400900000   0   0   0 # h
    279      1   2  0.100000   -11.225100000    26.104900000    14.871100000   0   0   0 # h
    280      1   2  0.100000   -13.469800000    26.545300000    15.569500000   0   0   0 # h
    281      1   2  0.100000    -7.223230000    26.213800000    13.270200000   0   0   0 # h
    282      1   2  0.100000    -6.370780000    24.121000000    13.911300000   0   0   0 # h
    283      1   2  0.100000   -10.144500000    22.302400000    13.235200000   0   0   0 # h
    284      1   2  0.100000   -11.081400000    24.562500000    12.727400000   0   0   0 # h
    285      1   2  0.100000   -11.321400000    26.217900000    10.415500000   0   0   0 # h
    286      1   2  0.100000   -10.694500000    26.191200000     8.104010000   0   0   0 # h
    287      1   2  0.100000    -6.817710000    27.660000000     8.996970000   0   0   0 # h
    288      1   2  0.100000    -7.470200000    27.753600000    11.368200000   0   0   0 # h
    289      1   1  0.000000   -17.277836934    28.866500000    29.755700000   1   0   0 # cp
    290      1   1 -0.100000   -18.210436934    28.483200000    28.816000000   1   0   0 # cp
    291      1   1 -0.100000   -18.717536934    27.211700000    28.815600000   1   0   0 # cp
    292      1   1  0.000000   -18.322836934    26.271500000    29.728000000   1   0   0 # cp
    293      1   1 -0.100000   -16.151736934    22.748300000     0.124133000   1   0   0 # cp
    294      1   1 -0.100000   -15.678036934    24.046300000     0.186103000   1   0   0 # cp
    295      1   2  0.100000   -18.580236934    29.189100000    28.076400000   1   0   0 # h
    296      1   2  0.100000   -19.525536934    26.983600000    28.112000000   1   0   0 # h
    297      1   2  0.100000   -15.905236934    22.044400000     0.888966000   1   0   0 # h
    298      1   2  0.100000   -15.002736934    24.310000000     1.009270000   1   0   0 # h
    299      1   1 -0.100000   -16.630236934    23.720600000    29.860500000   1   0   0 # cp