LAMMPS data file. msi2lmp v3.9.11 / 6 Sep 2024 / CGCMM for vca_1_opt

   2880 atoms
   3168 bonds
   5568 angles
   8928 dihedrals
   1344 impropers

   4 atom types
   6 bond types
   9 angle types
  13 dihedral types
   3 improper types

    -0.214549309    41.741550691 xlo xhi
     0.589591397    30.745626460 ylo yhi
     0.093356249    49.636017728 zlo zhi
     0.099738402     0.070501531    -1.442248504 xy xz yz

Masses

   1  12.011150 # cp
   2   1.007970 # h
   3  12.011150 # c
   4  12.011150 # c2

Pair Coeffs # lj/cut/coul/long

   1   0.1479999981   3.6170487995 # cp
   2   0.0380000011   2.4499714540 # h
   3   0.1599999990   3.4745050026 # c
   4   0.0389999952   3.8754094636 # c2

Bond Coeffs # harmonic

   1   480.0000     1.3400 # cp-cp
   2   283.0924     1.5100 # cp-c2
   3   363.4164     1.0800 # cp-h
   4   283.0924     1.5100 # cp-c
   5   322.7158     1.5260 # c2-c2
   6   340.6175     1.1050 # h-c2

Angle Coeffs # harmonic

   1    90.0000   120.0000 # cp-cp-cp
   2    44.2000   120.0000 # cp-cp-c2
   3    37.0000   120.0000 # cp-cp-h
   4    44.2000   120.0000 # cp-cp-c
   5    46.6000   110.5000 # cp-c-cp
   6    46.6000   110.5000 # cp-c2-c2
   7    44.4000   110.0000 # cp-c2-h
   8    44.4000   110.0000 # h-c2-c2
   9    39.5000   106.4000 # h-c2-h

Dihedral Coeffs # harmonic

  1     3.0000  -1   2 # cp-cp-cp-cp
  2     3.0000  -1   2 # cp-cp-cp-h
  3     3.0000  -1   2 # cp-cp-cp-c2
  4     3.0000  -1   2 # h-cp-cp-c2
  5     0.0000   1   2 # cp-cp-c2-c2
  6     0.0000   1   2 # cp-cp-c2-h
  7     3.0000  -1   2 # h-cp-cp-h
  8     3.0000  -1   2 # cp-cp-cp-c
  9     3.0000  -1   2 # h-cp-cp-c
 10     0.6750   1   4 # cp-cp-c-cp
 11     0.1581   1   3 # cp-c2-c2-h
 12     0.1581   1   3 # cp-c2-c2-cp
 13     0.1581   1   3 # h-c2-c2-h

Improper Coeffs # cvff

    1     0.3700  -1   2 # cp-cp-cp-c2
    2     0.3700  -1   2 # cp-cp-cp-h
    3     0.3700  -1   2 # cp-cp-cp-c

Atoms # full

      1      1   1  0.000000     3.964200000     5.506350000    36.715900000   0   0   0 # cp
      2      1   1 -0.100000     4.894260000     5.557000000    37.738700000   0   0   0 # cp
      3      1   1 -0.100000     5.490650000     6.763230000    38.073400000   0   0   0 # cp
      4      1   1  0.000000     5.167910000     7.938460000    37.371400000   0   0   0 # cp
      5      1   1 -0.100000     4.245280000     7.829020000    36.335800000   0   0   0 # cp
      6      1   1 -0.100000     3.711870000     6.626060000    35.973300000   0   0   0 # cp
      7      1   2  0.100000     5.066970000     4.708980000    38.371500000   0   0   0 # h
      8      1   2  0.100000     6.135000000     6.847310000    38.939000000   0   0   0 # h
      9      1   2  0.100000     3.974940000     8.712230000    35.786200000   0   0   0 # h
     10      1   2  0.100000     3.028120000     6.624800000    35.118700000   0   0   0 # h
     11      1   1 -0.100000     8.075900000     8.949540000    38.475000000   0   0   0 # cp
     12      1   1  0.000000     6.920590000     9.715550000    38.584800000   0   0   0 # cp
     13      1   1 -0.100000     7.050700000    10.952000000    39.235900000   0   0   0 # cp
     14      1   1 -0.100000     8.222120000    11.362900000    39.823200000   0   0   0 # cp
     15      1   1  0.000000     9.313380000    10.554100000    39.747300000   0   0   0 # cp
     16      1   1 -0.100000     9.256500000     9.377690000    39.041400000   0   0   0 # cp
     17      1   3  0.000000     5.567800000     9.421340000    37.791200000   0   0   0 # c
     18      1   1  0.000000     4.374170000     9.795450000    38.758800000   0   0   0 # cp
     19      1   1 -0.100000     3.328600000    10.649500000    38.405200000   0   0   0 # cp
     20      1   1 -0.100000     2.497050000    11.161500000    39.377700000   0   0   0 # cp
     21      1   1  0.000000     2.642360000    10.745100000    40.693700000   0   0   0 # cp
     22      1   1 -0.100000     3.517850000     9.748860000    41.015200000   0   0   0 # cp
     23      1   1 -0.100000     4.403740000     9.305180000    40.074100000   0   0   0 # cp
     24      1   1 -0.100000     6.766810000     9.779970000    35.527600000   0   0   0 # cp
     25      1   1 -0.100000     7.232680000    10.528300000    34.484800000   0   0   0 # cp
     26      1   1  0.000000     6.914810000    11.882500000    34.344900000   0   0   0 # cp
     27      1   1 -0.100000     6.124150000    12.424300000    35.346900000   0   0   0 # cp
     28      1   1 -0.100000     5.633410000    11.664800000    36.372200000   0   0   0 # cp
     29      1   1  0.000000     5.921370000    10.328500000    36.479200000   0   0   0 # cp
     30      1   3  0.000000     7.570590000    12.809900000    33.213600000   0   0   0 # c
     31      1   1  0.000000    11.172900000    14.318300000    35.295200000   0   0   0 # cp
     32      1   1 -0.100000    11.179300000    13.175900000    34.508900000   0   0   0 # cp
     33      1   1 -0.100000    10.018100000    12.689500000    33.985800000   0   0   0 # cp
     34      1   1  0.000000     8.842330000    13.391000000    34.042900000   0   0   0 # cp
     35      1   1 -0.100000     8.843350000    14.552400000    34.823600000   0   0   0 # cp
     36      1   1 -0.100000     9.985190000    14.985900000    35.488300000   0   0   0 # cp
     37      1   1  0.000000     6.642540000    13.963900000    32.613000000   0   0   0 # cp
     38      1   1 -0.100000     5.244110000    13.888500000    32.573900000   0   0   0 # cp
     39      1   1 -0.100000     4.507310000    14.934500000    32.073600000   0   0   0 # cp
     40      1   1  0.000000     5.120920000    16.034600000    31.521700000   0   0   0 # cp
     41      1   1 -0.100000     6.510320000    16.090700000    31.509200000   0   0   0 # cp
     42      1   1 -0.100000     7.247250000    15.069300000    32.026900000   0   0   0 # cp
     43      1   1 -0.100000     9.047040000    12.090100000    31.118000000   0   0   0 # cp
     44      1   1 -0.100000     9.418500000    11.182200000    30.166900000   0   0   0 # cp
     45      1   1  0.000000     8.581220000    10.156100000    29.798600000   0   0   0 # cp
     46      1   1 -0.100000     7.374050000    10.038500000    30.439200000   0   0   0 # cp
     47      1   1 -0.100000     7.012780000    10.927700000    31.443900000   0   0   0 # cp
     48      1   1  0.000000     7.868590000    11.933000000    31.847400000   0   0   0 # cp
     49      1   2  0.100000     8.034460000     8.043910000    37.870700000   0   0   0 # h
     50      1   2  0.100000     6.220920000    11.642800000    39.370500000   0   0   0 # h
     51      1   2  0.100000     8.311970000    12.305900000    40.308100000   0   0   0 # h
     52      1   2  0.100000    10.156700000     8.775620000    38.909400000   0   0   0 # h
     53      1   2  0.100000     3.216850000    11.055900000    37.402400000   0   0   0 # h
     54      1   2  0.100000     1.730650000    11.887200000    39.124200000   0   0   0 # h
     55      1   2  0.100000     3.576030000     9.322240000    42.008700000   0   0   0 # h
     56      1   2  0.100000     5.187020000     8.649540000    40.383500000   0   0   0 # h
     57      1   2  0.100000     7.077520000     8.746250000    35.630900000   0   0   0 # h
     58      1   2  0.100000     7.920040000    10.066900000    33.821200000   0   0   0 # h
     59      1   2  0.100000     5.946720000    13.499500000    35.394200000   0   0   0 # h
     60      1   2  0.100000     5.137490000    12.147800000    37.181100000   0   0   0 # h
     61      1   2  0.100000    12.082500000    12.606500000    34.386400000   0   0   0 # h
     62      1   2  0.100000    10.011700000    11.720800000    33.506100000   0   0   0 # h
     63      1   2  0.100000     7.971640000    15.140600000    34.919100000   0   0   0 # h
     64      1   2  0.100000     9.986310000    15.904800000    36.038400000   0   0   0 # h
     65      1   2  0.100000     4.708090000    13.001400000    32.956000000   0   0   0 # h
     66      1   2  0.100000     3.420080000    14.894800000    32.135700000   0   0   0 # h
     67      1   2  0.100000     7.015080000    16.919000000    31.068900000   0   0   0 # h
     68      1   2  0.100000     8.350770000    15.128600000    31.983500000   0   0   0 # h
     69      1   2  0.100000     9.716250000    12.885900000    31.357700000   0   0   0 # h
     70      1   2  0.100000    10.382800000    11.319300000    29.726500000   0   0   0 # h
     71      1   2  0.100000     6.681820000     9.276660000    30.097100000   0   0   0 # h
     72      1   2  0.100000     6.067510000    10.800200000    31.912600000   0   0   0 # h
     73      1   1  0.000000     6.899870000     6.554180000    49.217800000   0   0   0 # cp
     74      1   1 -0.100000     7.160850000     7.743320000    48.545400000   0   0   0 # cp
     75      1   1 -0.100000     6.114710000     8.548590000    48.179800000   0   0   0 # cp
     76      1   1  0.000000     4.822250000     8.191980000    48.448700000   0   0   0 # cp
     77      1   1 -0.100000     4.596600000     7.067950000    49.228900000   0   0   0 # cp
     78      1   1 -0.100000     5.634079969     6.239610629    49.548478383   0   0  -1 # cp
     79      1   2  0.100000     8.172870000     8.006820000    48.268600000   0   0   0 # h
     80      1   2  0.100000     6.340600000     9.503180000    47.691500000   0   0   0 # h
     81      1   2  0.100000     3.586340000     6.760630000    49.475300000   0   0   0 # h
     82      1   2  0.100000     5.365228438     6.765089133     0.514716903   0   0   0 # h
     83      1   1 -0.100000     3.170490000     6.899250000    46.297700000   0   0   0 # cp
     84      1   1  0.000000     2.609370000     7.874270000    47.109700000   0   0   0 # cp
     85      1   1 -0.100000     1.220449283     7.987550000    47.119300000   0   0   0 # cp
     86      1   1 -0.100000     0.446249283     7.224920000    46.292900000   0   0   0 # cp
     87      1   1  0.000000     1.028549283     6.320750000    45.434800000   0   0   0 # cp
     88      1   1 -0.100000     2.396650000     6.137240000    45.506100000   0   0   0 # cp
     89      1   3  0.000000     3.557710000     8.928130000    47.821700000   0   0   0 # c
     90      1   1  0.000000     3.617400000     9.939750000    46.567900000   0   0   0 # cp
     91      1   1 -0.100000     2.576920000    10.844400000    46.404300000   0   0   0 # cp
     92      1   1 -0.100000     2.371640000    11.493200000    45.216100000   0   0   0 # cp
     93      1   1  0.000000     3.264430000    11.340000000    44.180100000   0   0   0 # cp
     94      1   1 -0.100000     4.367570000    10.547300000    44.367000000   0   0   0 # cp
     95      1   1 -0.100000     4.534920000     9.831470000    45.528900000   0   0   0 # cp
     96      1   1 -0.100000     1.931328438    10.700569133     0.390916903   0   0   0 # cp
     97      1   1 -0.100000     1.281047721    11.558949133     1.214516903   0   0   0 # cp
     98      1   1  0.000000     1.606628438    12.909749133     1.258416903   0   0   0 # cp
     99      1   1 -0.100000     2.785038438    13.300849133     0.660916903   0   0   0 # cp
    100      1   1 -0.100000     3.531070000    10.994600000    49.384600000   0   0   0 # cp
    101      1   1  0.000000     3.034120000     9.700180000    49.120900000   0   0   0 # cp
    102      1   3  0.000000     0.470747721    13.969149133     1.621716903   0   0   0 # c
    103      1   1  0.000000    19.446400000    12.337200000    47.264200000   0   0   0 # cp
    104      1   1 -0.100000    19.048900000    11.540500000    48.303200000   0   0   0 # cp
    105      1   1 -0.100000    19.691700000    11.588400000    49.521200000   0   0   0 # cp
    106      1   1  0.000000    20.650898438    13.949749133     0.218616903   0   0   0 # cp
    107      1   1 -0.100000     0.146049283    13.280400000    48.674200000   0   0   0 # cp
    108      1   1 -0.100000    20.488700000    13.213600000    47.469500000   0   0   0 # cp
    109      1   1  0.000000     0.942947721    15.431149133     2.068816903   0   0   0 # cp
    110      1   1 -0.100000     2.094168438    15.657949133     2.837916903   0   0   0 # cp
    111      1   1 -0.100000     2.472118438    16.913649133     3.225616903   0   0   0 # cp
    112      1   1  0.000000     1.690688438    17.995349133     2.877016903   0   0   0 # cp
    113      1   1 -0.100000     0.534247721    17.808049133     2.176616903   0   0   0 # cp
    114      1   1 -0.100000     0.171647721    16.558149133     1.752816903   0   0   0 # cp
    115      1   1 -0.100000    19.206998438    14.162749133     2.954316903   0   0   0 # cp
    116      1   1 -0.100000    18.316898438    13.798049133     3.960216903   0   0   0 # cp
    117      1   1  0.000000    18.726500000    12.934100000     4.957650000   0   0   0 # cp
    118      1   1 -0.100000    20.043800000    12.521100000     4.955140000   0   0   0 # cp
    119      1   1 -0.100000    20.894898438    12.814449133     3.929916903   0   0   0 # cp
    120      1   1  0.000000    20.482098438    13.625149133     2.875316903   0   0   0 # cp
    121      1   2  0.100000     4.236230000     6.738180000    46.232400000   0   0   0 # h
    122      1   2  0.100000     0.745449283     8.749040000    47.708000000   0   0   0 # h
    123      1   2  0.100000    20.339500000     7.350060000    46.343200000   0   0   0 # h
    124      1   2  0.100000     2.834460000     5.415420000    44.809800000   0   0   0 # h
    125      1   2  0.100000     1.733490000    10.914300000    47.098800000   0   0   0 # h
    126      1   2  0.100000     1.476949283    12.100800000    45.031900000   0   0   0 # h
    127      1   2  0.100000     5.087840000    10.393100000    43.552600000   0   0   0 # h
    128      1   2  0.100000     5.330180000     9.126260000    45.530000000   0   0   0 # h
    129      1   2  0.100000     1.597738438     9.698769133     0.338816903   0   0   0 # h
    130      1   2  0.100000     0.376047721    11.188969133     1.715816903   0   0   0 # h
    131      1   2  0.100000     3.146928438    14.332649133     0.614416903   0   0   0 # h
    132      1   2  0.100000     4.426220000    11.333100000    48.883800000   0   0   0 # h
    133      1   2  0.100000    18.239800000    10.833100000    48.165800000   0   0   0 # h
    134      1   2  0.100000    19.279198438    12.381849133     0.786416903   0   0   0 # h
    135      1   2  0.100000     1.020649283    13.897000000    48.722300000   0   0   0 # h
    136      1   2  0.100000    20.846600000    13.843800000    46.644700000   0   0   0 # h
    137      1   2  0.100000     2.731778438    14.845949133     3.109916903   0   0   0 # h
    138      1   2  0.100000     3.391888438    17.020849133     3.787416903   0   0   0 # h
    139      1   2  0.100000    20.923198438    18.671049133     1.895016903   0   0   0 # h
    140      1   2  0.100000    20.240298438    16.475949133     1.182016903   0   0   0 # h
    141      1   2  0.100000    18.883698438    14.867049133     2.240016903   0   0   0 # h
    142      1   2  0.100000    17.339298438    14.238449133     3.941216903   0   0   0 # h
    143      1   2  0.100000    20.421800000    11.977300000     5.802800000   0   0   0 # h
    144      1   2  0.100000     0.912247721    12.393949133     3.927216903   0   0   0 # h
    145      1   1  0.000000    17.812200000     9.864950000    45.468400000   0   0   0 # cp
    146      1   1 -0.100000    18.250800000     8.611980000    45.101200000   0   0   0 # cp
    147      1   1 -0.100000    17.660700000     7.525530000    45.674900000   0   0   0 # cp
    148      1   1  0.000000    16.676200000     7.623770000    46.652200000   0   0   0 # cp
    149      1   1 -0.100000    16.132200000     8.875070000    46.849400000   0   0   0 # cp
    150      1   1 -0.100000    16.683700000     9.988420000    46.244300000   0   0   0 # cp
    151      1   2  0.100000    19.106100000     8.504580000    44.454500000   0   0   0 # h
    152      1   2  0.100000    18.053900000     6.585180000    45.416500000   0   0   0 # h
    153      1   2  0.100000    15.326600000     8.986750000    47.549500000   0   0   0 # h
    154      1   2  0.100000    16.279900000    10.947600000    46.469500000   0   0   0 # h
    155      1   1 -0.100000    16.987498438     9.037719133     0.108316903   0   0   0 # cp
    156      1   1  0.000000    16.094000000     6.772980000    49.088000000   0   0   0 # cp
    157      1   1 -0.100000    15.119398438     7.630879133     0.401916903   0   0   0 # cp
    158      1   1 -0.100000    15.137898438     7.878909133     1.749316903   0   0   0 # cp
    159      1   1  0.000000    16.118198438     8.667709133     2.281916903   0   0   0 # cp
    160      1   1 -0.100000    17.022998438     9.254759133     1.439516903   0   0   0 # cp
    161      1   3  0.000000    16.196300000     6.362220000    47.529300000   0   0   0 # c
    162      1   1  0.000000    17.196200000     5.143860000    47.627900000   0   0   0 # cp
    163      1   1 -0.100000    16.719900000     3.845320000    47.739700000   0   0   0 # cp
    164      1   1 -0.100000    17.534100000     2.792380000    48.081800000   0   0   0 # cp
    165      1   1  0.000000    18.879000000     2.998400000    48.283300000   0   0   0 # cp
    166      1   1 -0.100000    19.398200000     4.258410000    48.124900000   0   0   0 # cp
    167      1   1 -0.100000    18.563000000     5.315900000    47.830900000   0   0   0 # cp
    168      1   1 -0.100000    13.640700000     6.512090000    47.087800000   0   0   0 # cp
    169      1   1 -0.100000    12.566700000     6.374490000    46.269200000   0   0   0 # cp
    170      1   1  0.000000    12.633900000     5.716770000    45.024200000   0   0   0 # cp
    171      1   1 -0.100000    13.887100000     5.228460000    44.696900000   0   0   0 # cp
    172      1   1 -0.100000    14.977400000     5.354070000    45.532400000   0   0   0 # cp
    173      1   1  0.000000    14.890300000     6.032040000    46.732300000   0   0   0 # cp
    174      1   3  0.000000    11.384100000     5.644840000    44.035500000   0   0   0 # c
    175      1   1  0.000000     8.630850000     4.375940000    47.191900000   0   0   0 # cp
    176      1   1 -0.100000     8.185440000     5.279770000    46.280300000   0   0   0 # cp
    177      1   1 -0.100000     9.001910000     5.634590000    45.229400000   0   0   0 # cp
    178      1   1  0.000000    10.240300000     5.005550000    44.987300000   0   0   0 # cp
    179      1   1 -0.100000    10.539900000     3.924120000    45.814100000   0   0   0 # cp
    180      1   1 -0.100000     9.773840000     3.652220000    46.945600000   0   0   0 # cp
    181      1   1  0.000000    11.656600000     4.811640000    42.706700000   0   0   0 # cp
    182      1   1 -0.100000    12.516700000     5.295100000    41.719000000   0   0   0 # cp
    183      1   1 -0.100000    12.733500000     4.632910000    40.556300000   0   0   0 # cp
    184      1   1  0.000000    12.088500000     3.427580000    40.341500000   0   0   0 # cp
    185      1   1 -0.100000    11.297100000     2.904480000    41.311000000   0   0   0 # cp
    186      1   1 -0.100000    11.108400000     3.564430000    42.490900000   0   0   0 # cp
    187      1   1 -0.100000     9.976830000     7.396760000    42.815600000   0   0   0 # cp
    188      1   1 -0.100000     9.669330000     8.644090000    42.405500000   0   0   0 # cp
    189      1   1  0.000000    10.588400000     9.652190000    42.572900000   0   0   0 # cp
    190      1   1 -0.100000    11.749100000     9.408680000    43.240400000   0   0   0 # cp
    191      1   1 -0.100000    11.978800000     8.161240000    43.730500000   0   0   0 # cp
    192      1   1  0.000000    11.079600000     7.136090000    43.556900000   0   0   0 # cp
    193      1   2  0.100000    17.759900000     8.166290000    49.086500000   0   0   0 # h
    194      1   2  0.100000    14.436699969     5.491370629    49.576478383   0   0  -1 # h
    195      1   2  0.100000    14.396198438     7.435959133     2.410516903   0   0   0 # h
    196      1   2  0.100000    17.750598438     9.917219133     1.868016903   0   0   0 # h
    197      1   2  0.100000    15.664800000     3.624440000    47.706200000   0   0   0 # h
    198      1   2  0.100000    17.104100000     1.798950000    48.200700000   0   0   0 # h
    199      1   2  0.100000    20.447100000     4.419570000    48.235500000   0   0   0 # h
    200      1   2  0.100000    18.948800000     6.310530000    47.856100000   0   0   0 # h
    201      1   2  0.100000    13.485700000     7.054400000    47.998400000   0   0   0 # h
    202      1   2  0.100000    11.636800000     6.735910000    46.645200000   0   0   0 # h
    203      1   2  0.100000    14.129800000     4.803060000    43.743400000   0   0   0 # h
    204      1   2  0.100000    15.933000000     4.966080000    45.211500000   0   0   0 # h
    205      1   2  0.100000     7.222220000     5.803180000    46.419700000   0   0   0 # h
    206      1   2  0.100000     8.613800000     6.448560000    44.687500000   0   0   0 # h
    207      1   2  0.100000    11.468000000     3.399580000    45.657200000   0   0   0 # h
    208      1   2  0.100000    10.118600000     2.959530000    47.692500000   0   0   0 # h
    209      1   2  0.100000    13.024400000     6.231570000    41.822100000   0   0   0 # h
    210      1   2  0.100000    13.337200000     5.020060000    39.762400000   0   0   0 # h
    211      1   2  0.100000    10.744800000     2.017020000    41.158900000   0   0   0 # h
    212      1   2  0.100000    10.449400000     3.088930000    43.190600000   0   0   0 # h
    213      1   2  0.100000     9.321710000     6.588070000    42.543000000   0   0   0 # h
    214      1   2  0.100000     8.745860000     8.823020000    41.870600000   0   0   0 # h
    215      1   2  0.100000    12.535400000    10.130000000    43.301900000   0   0   0 # h
    216      1   2  0.100000    12.933000000     8.044780000    44.195000000   0   0   0 # h
    217      1   1  0.000000    13.144700000    12.786800000    37.162700000   0   0   0 # cp
    218      1   1 -0.100000    12.229400000    11.854000000    37.580600000   0   0   0 # cp
    219      1   1 -0.100000    12.452400000    10.515900000    37.355700000   0   0   0 # cp
    220      1   1  0.000000    13.492300000    10.098400000    36.569700000   0   0   0 # cp
    221      1   1 -0.100000    14.445200000    11.047500000    36.208200000   0   0   0 # cp
    222      1   1 -0.100000    14.292300000    12.373600000    36.564800000   0   0   0 # cp
    223      1   2  0.100000    11.307000000    12.173000000    38.103000000   0   0   0 # h
    224      1   2  0.100000    11.695300000     9.848780000    37.742600000   0   0   0 # h
    225      1   2  0.100000    15.280900000    10.750500000    35.604500000   0   0   0 # h
    226      1   2  0.100000    15.015200000    13.121400000    36.267900000   0   0   0 # h
    227      1   1 -0.100000    12.880100000     9.690960000    33.727500000   0   0   0 # cp
    228      1   1  0.000000    13.587300000     8.689360000    34.396400000   0   0   0 # cp
    229      1   1 -0.100000    14.160900000     7.697070000    33.626800000   0   0   0 # cp
    230      1   1 -0.100000    13.992600000     7.646890000    32.254600000   0   0   0 # cp
    231      1   1  0.000000    13.273200000     8.630970000    31.641000000   0   0   0 # cp
    232      1   1 -0.100000    12.776000000     9.694420000    32.360100000   0   0   0 # cp
    233      1   3  0.000000    13.610500000     8.609660000    35.977300000   0   0   0 # c
    234      1   1  0.000000    12.371000000     7.599860000    36.202000000   0   0   0 # cp
    235      1   1 -0.100000    12.568400000     6.254700000    36.386600000   0   0   0 # cp
    236      1   1 -0.100000    11.586500000     5.316800000    36.257400000   0   0   0 # cp
    237      1   1  0.000000    10.324700000     5.712050000    35.946700000   0   0   0 # cp
    238      1   1 -0.100000    10.045500000     7.052750000    35.840800000   0   0   0 # cp
    239      1   1 -0.100000    11.060900000     8.000010000    35.930100000   0   0   0 # cp
    240      1   1 -0.100000    16.154500000     7.853340000    35.974200000   0   0   0 # cp
    241      1   1 -0.100000    17.175100000     7.107380000    36.511400000   0   0   0 # cp
    242      1   1  0.000000    17.102900000     6.649540000    37.814100000   0   0   0 # cp
    243      1   1 -0.100000    15.999000000     7.055190000    38.553400000   0   0   0 # cp
    244      1   1 -0.100000    14.963700000     7.767470000    37.990300000   0   0   0 # cp
    245      1   1  0.000000    14.959800000     8.064940000    36.639500000   0   0   0 # cp
    246      1   3  0.000000    17.989900000     5.452840000    38.375300000   0   0   0 # c
    247      1   1  0.000000     0.698449283     4.456120000    36.174400000   0   0   0 # cp
    248      1   1 -0.100000     0.392549283     5.743570000    36.548800000   0   0   0 # cp
    249      1   1 -0.100000    20.161700000     6.043640000    37.119400000   0   0   0 # cp
    250      1   1  0.000000    19.254800000     5.052230000    37.447900000   0   0   0 # cp
    251      1   1 -0.100000    19.593100000     3.758030000    37.089400000   0   0   0 # cp
    252      1   1 -0.100000    20.779400000     3.478110000    36.464000000   0   0   0 # cp
    253      1   1  0.000000    16.896700000     4.296750000    38.425300000   0   0   0 # cp
    254      1   1 -0.100000    16.351800000     3.897040000    39.644600000   0   0   0 # cp
    255      1   1 -0.100000    15.302700000     3.029790000    39.667000000   0   0   0 # cp
    256      1   1  0.000000    14.726400000     2.561650000    38.523800000   0   0   0 # cp
    257      1   1 -0.100000    15.194200000     2.967750000    37.302900000   0   0   0 # cp
    258      1   1 -0.100000    16.291700000     3.820360000    37.254900000   0   0   0 # cp
    259      1   1 -0.100000    19.343700000     4.810010000    40.438400000   0   0   0 # cp
    260      1   1 -0.100000    20.123200000     5.080950000    41.515900000   0   0   0 # cp
    261      1   1  0.000000    20.289500000     6.362420000    41.977100000   0   0   0 # cp
    262      1   1 -0.100000    19.664800000     7.379770000    41.338800000   0   0   0 # cp
    263      1   1 -0.100000    18.883900000     7.127250000    40.244000000   0   0   0 # cp
    264      1   1  0.000000    18.720200000     5.827540000    39.763600000   0   0   0 # cp
    265      1   2  0.100000    12.306200000    10.439700000    34.251100000   0   0   0 # h
    266      1   2  0.100000    14.586500000     6.811190000    34.082600000   0   0   0 # h
    267      1   2  0.100000    14.421700000     6.821940000    31.713100000   0   0   0 # h
    268      1   2  0.100000    12.247500000    10.475700000    31.872100000   0   0   0 # h
    269      1   2  0.100000    13.562800000     5.879920000    36.484800000   0   0   0 # h
    270      1   2  0.100000    11.813500000     4.256750000    36.280200000   0   0   0 # h
    271      1   2  0.100000     9.082730000     7.408530000    35.581200000   0   0   0 # h
    272      1   2  0.100000    10.819200000     9.031160000    35.699100000   0   0   0 # h
    273      1   2  0.100000    16.323400000     8.193530000    34.962500000   0   0   0 # h
    274      1   2  0.100000    17.967600000     6.793200000    35.849400000   0   0   0 # h
    275      1   2  0.100000    15.958400000     6.812710000    39.601900000   0   0   0 # h
    276      1   2  0.100000    14.117000000     7.979180000    38.602100000   0   0   0 # h
    277      1   2  0.100000     1.065449283     6.576480000    36.398400000   0   0   0 # h
    278      1   2  0.100000    19.932300000     7.046080000    37.445600000   0   0   0 # h
    279      1   2  0.100000    18.946800000     2.926150000    37.324700000   0   0   0 # h
    280      1   2  0.100000    21.002100000     2.449370000    36.226500000   0   0   0 # h
    281      1   2  0.100000    16.702100000     4.335490000    40.567500000   0   0   0 # h
    282      1   2  0.100000    14.898400000     2.775110000    40.630900000   0   0   0 # h
    283      1   2  0.100000    14.755200000     2.715150000    36.342800000   0   0   0 # h
    284      1   2  0.100000    16.627100000     4.155800000    36.309800000   0   0   0 # h
    285      1   2  0.100000    19.363800000     3.803750000    40.026400000   0   0   0 # h
    286      1   2  0.100000    20.637900000     4.258350000    41.985900000   0   0   0 # h
    287      1   2  0.100000    19.792900000     8.403760000    41.674800000   0   0   0 # h
    288      1   2  0.100000    18.482300000     8.011600000    39.749900000   0   0   0 # h
    289      1   1  0.000000    15.340600000    26.766100000    34.696000000   0   0   0 # cp
    290      1   1 -0.100000    15.169100000    28.016200000    35.190800000   0   0   0 # cp
    291      1   1 -0.100000    13.894900000    28.520500000    35.420600000   0   0   0 # cp
    292      1   1  0.000000    12.758200000    27.780200000    35.133500000   0   0   0 # cp
    293      1   1 -0.100000    12.981800000    26.461600000    34.748300000   0   0   0 # cp
    294      1   1 -0.100000    14.228900000    25.976500000    34.507100000   0   0   0 # cp
    295      1   2  0.100000    15.998500000    28.640100000    35.533100000   0   0   0 # h
    296      1   2  0.100000    13.824999991    29.484897111    35.873000000   0  -1   0 # h
    297      1   2  0.100000    12.189100000    25.741200000    34.663400000   0   0   0 # h
    298      1   2  0.100000    14.299500000    24.966600000    34.163900000   0   0   0 # h
    299      1   1 -0.100000    10.513000000    27.506700000    33.081000000   0   0   0 # cp