LAMMPS data file. msi2lmp v3.9.11 / 6 Sep 2024 / CGCMM for whg_1_opt

   1440 atoms
   1584 bonds
   2784 angles
   4464 dihedrals
    672 impropers

   4 atom types
   6 bond types
   9 angle types
  13 dihedral types
   3 improper types

     0.250787958    33.105887958 xlo xhi
     0.067851072    32.103250572 ylo yhi
    -1.209903623    40.563677495 zlo zhi
    -0.582782474    -0.249132871     0.121258630 xy xz yz

Masses

   1  12.011150 # cp
   2   1.007970 # h
   3  12.011150 # c
   4  12.011150 # c2

Pair Coeffs # lj/cut/coul/long

   1   0.1479999981   3.6170487995 # cp
   2   0.0380000011   2.4499714540 # h
   3   0.1599999990   3.4745050026 # c
   4   0.0389999952   3.8754094636 # c2

Bond Coeffs # harmonic

   1   480.0000     1.3400 # cp-cp
   2   283.0924     1.5100 # cp-c2
   3   363.4164     1.0800 # cp-h
   4   283.0924     1.5100 # cp-c
   5   322.7158     1.5260 # c2-c2
   6   340.6175     1.1050 # h-c2

Angle Coeffs # harmonic

   1    90.0000   120.0000 # cp-cp-cp
   2    44.2000   120.0000 # cp-cp-c2
   3    37.0000   120.0000 # cp-cp-h
   4    44.2000   120.0000 # cp-cp-c
   5    46.6000   110.5000 # cp-c-cp
   6    46.6000   110.5000 # cp-c2-c2
   7    44.4000   110.0000 # cp-c2-h
   8    44.4000   110.0000 # h-c2-c2
   9    39.5000   106.4000 # h-c2-h

Dihedral Coeffs # harmonic

  1     3.0000  -1   2 # cp-cp-cp-cp
  2     3.0000  -1   2 # cp-cp-cp-h
  3     3.0000  -1   2 # cp-cp-cp-c2
  4     3.0000  -1   2 # h-cp-cp-c2
  5     0.0000   1   2 # cp-cp-c2-c2
  6     0.0000   1   2 # cp-cp-c2-h
  7     3.0000  -1   2 # h-cp-cp-h
  8     3.0000  -1   2 # cp-cp-cp-c
  9     3.0000  -1   2 # h-cp-cp-c
 10     0.6750   1   4 # cp-cp-c-cp
 11     0.1581   1   3 # cp-c2-c2-cp
 12     0.1581   1   3 # cp-c2-c2-h
 13     0.1581   1   3 # h-c2-c2-h

Improper Coeffs # cvff

    1     0.3700  -1   2 # cp-cp-cp-c2
    2     0.3700  -1   2 # cp-cp-cp-h
    3     0.3700  -1   2 # cp-cp-cp-c

Atoms # full

      1      1   1  0.000000    26.468200000    13.027300000    14.191300000   0   0   0 # cp
      2      1   1 -0.100000    27.484100000    13.970800000    14.168800000   0   0   0 # cp
      3      1   1 -0.100000    27.415300000    15.059700000    14.970100000   0   0   0 # cp
      4      1   1  0.000000    26.366100000    15.274300000    15.849000000   0   0   0 # cp
      5      1   1 -0.100000    25.360600000    14.316700000    15.870400000   0   0   0 # cp
      6      1   1 -0.100000    25.408100000    13.170300000    15.091600000   0   0   0 # cp
      7      1   2  0.100000    28.331100000    13.830000000    13.510200000   0   0   0 # h
      8      1   2  0.100000    28.212100000    15.785300000    14.862800000   0   0   0 # h
      9      1   2  0.100000    24.559900000    14.420600000    16.597200000   0   0   0 # h
     10      1   2  0.100000    24.653200000    12.390900000    15.165400000   0   0   0 # h
     11      1   1 -0.100000    24.070200000    17.261000000    16.129400000   0   0   0 # cp
     12      1   1  0.000000    24.928000000    17.066700000    17.196600000   0   0   0 # cp
     13      1   1 -0.100000    24.630200000    17.723300000    18.377600000   0   0   0 # cp
     14      1   1 -0.100000    23.588300000    18.594200000    18.467400000   0   0   0 # cp
     15      1   1  0.000000    22.759000000    18.744500000    17.368900000   0   0   0 # cp
     16      1   1 -0.100000    22.977100000    18.089300000    16.204000000   0   0   0 # cp
     17      1   3  0.000000    26.366300000    16.431700000    16.954000000   0   0   0 # c
     18      1   1  0.000000    27.191900000    17.774600000    16.660200000   0   0   0 # cp
     19      1   1 -0.100000    27.769100000    18.551900000    17.686200000   0   0   0 # cp
     20      1   1 -0.100000    28.422400000    19.741600000    17.426800000   0   0   0 # cp
     21      1   1  0.000000    28.531400000    20.174700000    16.122400000   0   0   0 # cp
     22      1   1 -0.100000    27.863900000    19.509900000    15.130200000   0   0   0 # cp
     23      1   1 -0.100000    27.203100000    18.335000000    15.399700000   0   0   0 # cp
     24      1   1 -0.100000    26.360300000    15.011300000    19.137900000   0   0   0 # cp
     25      1   1 -0.100000    26.961300000    14.179600000    20.050600000   0   0   0 # cp
     26      1   1  0.000000    28.329000000    13.972300000    20.015600000   0   0   0 # cp
     27      1   1 -0.100000    29.012800000    14.551200000    18.972100000   0   0   0 # cp
     28      1   1 -0.100000    28.398100000    15.377400000    18.065900000   0   0   0 # cp
     29      1   1  0.000000    27.054000000    15.602300000    18.141000000   0   0   0 # cp
     30      1   3  0.000000    29.161600000    13.053900000    21.008900000   0   0   0 # c
     31      1   1  0.000000    28.095400000    12.685400000    25.202700000   0   0   0 # cp
     32      1   1 -0.100000    28.598100000    11.612800000    24.527300000   0   0   0 # cp
     33      1   1 -0.100000    28.808400000    11.691800000    23.178200000   0   0   0 # cp
     34      1   1  0.000000    28.627600000    12.868900000    22.466900000   0   0   0 # cp
     35      1   1 -0.100000    28.081400000    13.941300000    23.162100000   0   0   0 # cp
     36      1   1 -0.100000    27.829600000    13.840700000    24.512600000   0   0   0 # cp
     37      1   1  0.000000    30.600700000    13.650800000    21.345000000   0   0   0 # cp
     38      1   1 -0.100000    30.827800000    15.014600000    21.456500000   0   0   0 # cp
     39      1   1 -0.100000    32.034400000    15.483800000    21.931100000   0   0   0 # cp
     40      1   1  0.000000     0.160770702    14.592500000    22.309800000   0   0   0 # cp
     41      1   1 -0.100000    -0.009529298    13.246400000    22.161900000   0   0   0 # cp
     42      1   1 -0.100000    31.631200000    12.802600000    21.708100000   0   0   0 # cp
     43      1   1 -0.100000    30.075300000    11.395200000    19.184700000   0   0   0 # cp
     44      1   1 -0.100000    29.924400000    10.320100000    18.351200000   0   0   0 # cp
     45      1   1  0.000000    28.838700000     9.472090000    18.464500000   0   0   0 # cp
     46      1   1 -0.100000    27.836100000     9.794390000    19.329700000   0   0   0 # cp
     47      1   1 -0.100000    27.960300000    10.906200000    20.141300000   0   0   0 # cp
     48      1   1  0.000000    29.095500000    11.720100000    20.109100000   0   0   0 # cp
     49      1   2  0.100000    24.226700000    16.794900000    15.163400000   0   0   0 # h
     50      1   2  0.100000    25.330800000    17.642100000    19.200100000   0   0   0 # h
     51      1   2  0.100000    23.410100000    19.197200000    19.342900000   0   0   0 # h
     52      1   2  0.100000    22.340200000    18.211200000    15.311700000   0   0   0 # h
     53      1   2  0.100000    27.781300000    18.180000000    18.716700000   0   0   0 # h
     54      1   2  0.100000    28.915900000    20.240000000    18.242100000   0   0   0 # h
     55      1   2  0.100000    27.879200000    19.924800000    14.130000000   0   0   0 # h
     56      1   2  0.100000    26.716300000    17.847400000    14.557500000   0   0   0 # h
     57      1   2  0.100000    25.316500000    15.162500000    19.153700000   0   0   0 # h
     58      1   2  0.100000    26.352900000    13.788900000    20.863100000   0   0   0 # h
     59      1   2  0.100000    30.090100000    14.404200000    18.875300000   0   0   0 # h
     60      1   2  0.100000    28.994700000    15.786000000    17.298700000   0   0   0 # h
     61      1   2  0.100000    28.854700000    10.712800000    25.059700000   0   0   0 # h
     62      1   2  0.100000    29.227800000    10.823000000    22.696200000   0   0   0 # h
     63      1   2  0.100000    27.900500000    14.884800000    22.651300000   0   0   0 # h
     64      1   2  0.100000    27.374200000    14.651800000    25.029600000   0   0   0 # h
     65      1   2  0.100000    30.002300000    15.715200000    21.248700000   0   0   0 # h
     66      1   2  0.100000    32.154900000    16.547800000    22.054200000   0   0   0 # h
     67      1   2  0.100000     0.722495000    12.507200000    22.514100000   0   0   0 # h
     68      1   2  0.100000    31.468300000    11.730000000    21.716600000   0   0   0 # h
     69      1   2  0.100000    30.924700000    12.026200000    19.031800000   0   0   0 # h
     70      1   2  0.100000    30.732800000    10.041400000    17.702400000   0   0   0 # h
     71      1   2  0.100000    26.961200000     9.164160000    19.381600000   0   0   0 # h
     72      1   2  0.100000    27.150300000    11.178000000    20.818500000   0   0   0 # h
     73      1   1  0.000000     7.355180000    13.871000000    28.368200000   0   0   0 # cp
     74      1   1 -0.100000     6.766040000    14.826600000    29.204200000   0   0   0 # cp
     75      1   1 -0.100000     7.395120000    16.026500000    29.408600000   0   0   0 # cp
     76      1   1  0.000000     8.653310000    16.293100000    28.869300000   0   0   0 # cp
     77      1   1 -0.100000     9.212230000    15.327800000    28.057500000   0   0   0 # cp
     78      1   1 -0.100000     8.574540000    14.125300000    27.815900000   0   0   0 # cp
     79      1   2  0.100000     5.809760000    14.635000000    29.665700000   0   0   0 # h
     80      1   2  0.100000     6.900850000    16.724400000    30.049800000   0   0   0 # h
     81      1   2  0.100000    10.153600000    15.493700000    27.556300000   0   0   0 # h
     82      1   2  0.100000     9.006720000    13.410200000    27.102100000   0   0   0 # h
     83      1   1 -0.100000    11.707200000    16.983000000    29.150500000   0   0   0 # cp
     84      1   1  0.000000    10.809400000    17.883400000    28.633100000   0   0   0 # cp
     85      1   1 -0.100000    11.340500000    19.010400000    27.993000000   0   0   0 # cp
     86      1   1 -0.100000    12.681300000    19.192200000    27.857400000   0   0   0 # cp
     87      1   1  0.000000    13.546000000    18.281800000    28.414100000   0   0   0 # cp
     88      1   1 -0.100000    13.052500000    17.182300000    29.047500000   0   0   0 # cp
     89      1   3  0.000000     9.238870000    17.770500000    28.917200000   0   0   0 # c
     90      1   1  0.000000     9.089650000    18.518700000    30.305600000   0   0   0 # cp
     91      1   1 -0.100000     9.153930000    19.917900000    30.410900000   0   0   0 # cp
     92      1   1 -0.100000     9.123390000    20.536700000    31.616700000   0   0   0 # cp
     93      1   1  0.000000     8.914840000    19.796400000    32.755400000   0   0   0 # cp
     94      1   1 -0.100000     8.892250000    18.421900000    32.683000000   0   0   0 # cp
     95      1   1 -0.100000     9.010460000    17.792300000    31.479600000   0   0   0 # cp
     96      1   1 -0.100000     8.637410000    18.043800000    26.418900000   0   0   0 # cp
     97      1   1 -0.100000     7.774800000    18.446700000    25.439500000   0   0   0 # cp
     98      1   1  0.000000     6.623040000    19.122200000    25.756000000   0   0   0 # cp
     99      1   1 -0.100000     6.435480000    19.540300000    27.048400000   0   0   0 # cp
    100      1   1 -0.100000     7.262850000    19.132200000    28.031900000   0   0   0 # cp
    101      1   1  0.000000     8.411260000    18.375300000    27.743900000   0   0   0 # cp
    102      1   3  0.000000     5.606900000    19.577000000    24.611200000   0   0   0 # c
    103      1   1  0.000000     8.613980000    22.242600000    22.928000000   0   0   0 # cp
    104      1   1 -0.100000     8.186310000    21.141800000    22.215500000   0   0   0 # cp
    105      1   1 -0.100000     7.185130000    20.340200000    22.674600000   0   0   0 # cp
    106      1   1  0.000000     6.529820000    20.636500000    23.867100000   0   0   0 # cp
    107      1   1 -0.100000     6.890020000    21.830600000    24.504700000   0   0   0 # cp
    108      1   1 -0.100000     7.937450000    22.590000000    24.065300000   0   0   0 # cp
    109      1   1  0.000000     4.195010000    20.206300000    25.125000000   0   0   0 # cp
    110      1   1 -0.100000     3.437140000    19.559000000    26.084000000   0   0   0 # cp
    111      1   1 -0.100000     2.396120000    20.211200000    26.725600000   0   0   0 # cp
    112      1   1  0.000000     2.129290000    21.528700000    26.406300000   0   0   0 # cp
    113      1   1 -0.100000     2.734130000    22.089600000    25.297100000   0   0   0 # cp
    114      1   1 -0.100000     3.723350000    21.411800000    24.626400000   0   0   0 # cp
    115      1   1 -0.100000     4.425200000    18.608300000    22.465300000   0   0   0 # cp
    116      1   1 -0.100000     3.715570000    17.621200000    21.838500000   0   0   0 # cp
    117      1   1  0.000000     3.629790000    16.372800000    22.391100000   0   0   0 # cp
    118      1   1 -0.100000     4.303990000    16.093900000    23.548000000   0   0   0 # cp
    119      1   1 -0.100000     4.970690000    17.101000000    24.226700000   0   0   0 # cp
    120      1   1  0.000000     5.059160000    18.398800000    23.690200000   0   0   0 # cp
    121      1   2  0.100000    11.344000000    16.120700000    29.688000000   0   0   0 # h
    122      1   2  0.100000    10.719400000    19.787400000    27.567100000   0   0   0 # h
    123      1   2  0.100000    13.038900000    20.100300000    27.397600000   0   0   0 # h
    124      1   2  0.100000    13.693500000    16.492300000    29.540100000   0   0   0 # h
    125      1   2  0.100000     9.268110000    20.512000000    29.538200000   0   0   0 # h
    126      1   2  0.100000     9.141540000    21.620300000    31.646200000   0   0   0 # h
    127      1   2  0.100000     8.828170000    17.894700000    33.635400000   0   0   0 # h
    128      1   2  0.100000     9.001010000    16.698000000    31.477300000   0   0   0 # h
    129      1   2  0.100000     9.470340000    17.437500000    26.095400000   0   0   0 # h
    130      1   2  0.100000     7.939080000    18.188800000    24.445900000   0   0   0 # h
    131      1   2  0.100000     5.629440000    20.181100000    27.330300000   0   0   0 # h
    132      1   2  0.100000     7.000470000    19.485400000    29.003900000   0   0   0 # h
    133      1   2  0.100000     8.752650000    20.863200000    21.341000000   0   0   0 # h
    134      1   2  0.100000     6.998990000    19.416100000    22.117500000   0   0   0 # h
    135      1   2  0.100000     6.433270000    22.149000000    25.450800000   0   0   0 # h
    136      1   2  0.100000     8.174340000    23.522000000    24.579100000   0   0   0 # h
    137      1   2  0.100000     3.685860000    18.544900000    26.392100000   0   0   0 # h
    138      1   2  0.100000     1.815790000    19.717100000    27.505600000   0   0   0 # h
    139      1   2  0.100000     2.513760000    23.106800000    24.977400000   0   0   0 # h
    140      1   2  0.100000     4.158920000    21.868600000    23.774000000   0   0   0 # h
    141      1   2  0.100000     4.420800000    19.611600000    21.994700000   0   0   0 # h
    142      1   2  0.100000     3.215950000    17.795500000    20.891700000   0   0   0 # h
    143      1   2  0.100000     4.267540000    15.102500000    23.938700000   0   0   0 # h
    144      1   2  0.100000     5.346840000    16.872600000    25.207200000   0   0   0 # h
    145      1   1  0.000000    14.057900000    24.490600000    15.963400000   0   0   0 # cp
    146      1   1 -0.100000    14.870300000    23.394400000    16.192800000   0   0   0 # cp
    147      1   1 -0.100000    16.082800000    23.564800000    16.810900000   0   0   0 # cp
    148      1   1  0.000000    16.601300000    24.827100000    17.044400000   0   0   0 # cp
    149      1   1 -0.100000    15.764200000    25.905600000    16.813100000   0   0   0 # cp
    150      1   1 -0.100000    14.495300000    25.737800000    16.329700000   0   0   0 # cp
    151      1   2  0.100000    14.561300000    22.399000000    15.929600000   0   0   0 # h
    152      1   2  0.100000    16.603100000    22.664000000    17.047300000   0   0   0 # h
    153      1   2  0.100000    16.053700000    26.909600000    17.056400000   0   0   0 # h
    154      1   2  0.100000    13.820800000    26.556200000    16.256500000   0   0   0 # h
    155      1   1 -0.100000    18.836000000    26.940700000    16.250200000   0   0   0 # cp
    156      1   1  0.000000    18.771900000    26.419900000    17.543500000   0   0   0 # cp
    157      1   1 -0.100000    19.515800000    27.086000000    18.519700000   0   0   0 # cp
    158      1   1 -0.100000    20.173000000    28.254800000    18.243300000   0   0   0 # cp
    159      1   1  0.000000    20.252000000    28.708700000    16.952000000   0   0   0 # cp
    160      1   1 -0.100000    19.590900000    28.049600000    15.971600000   0   0   0 # cp
    161      1   3  0.000000    17.978800000    25.053900000    17.826400000   0   0   0 # c
    162      1   1  0.000000    19.164100000    23.990600000    17.549500000   0   0   0 # cp
    163      1   1 -0.100000    20.226900000    23.792500000    18.425600000   0   0   0 # cp
    164      1   1 -0.100000    21.196500000    22.874800000    18.148500000   0   0   0 # cp
    165      1   1  0.000000    21.149100000    22.159800000    16.970000000   0   0   0 # cp
    166      1   1 -0.100000    20.153300000    22.364500000    16.081600000   0   0   0 # cp
    167      1   1 -0.100000    19.162500000    23.294600000    16.363200000   0   0   0 # cp
    168      1   1 -0.100000    16.956300000    26.048100000    20.009200000   0   0   0 # cp
    169      1   1 -0.100000    16.598300000    25.964200000    21.325300000   0   0   0 # cp
    170      1   1  0.000000    16.763100000    24.762200000    22.012100000   0   0   0 # cp
    171      1   1 -0.100000    17.099100000    23.663200000    21.273800000   0   0   0 # cp
    172      1   1 -0.100000    17.405000000    23.741900000    19.943100000   0   0   0 # cp
    173      1   1  0.000000    17.439000000    24.950700000    19.319800000   0   0   0 # cp
    174      1   3  0.000000    16.488800000    24.623400000    23.570600000   0   0   0 # c
    175      1   1  0.000000    17.559700000    27.935800000    26.190000000   0   0   0 # cp
    176      1   1 -0.100000    16.657700000    26.982000000    26.577600000   0   0   0 # cp
    177      1   1 -0.100000    16.323400000    25.986200000    25.727800000   0   0   0 # cp
    178      1   1  0.000000    16.900700000    25.869100000    24.465100000   0   0   0 # cp
    179      1   1 -0.100000    17.880000000    26.798700000    24.138900000   0   0   0 # cp
    180      1   1 -0.100000    18.200000000    27.819600000    24.974400000   0   0   0 # cp
    181      1   1  0.000000    17.530200000    23.616000000    24.188300000   0   0   0 # cp
    182      1   1 -0.100000    18.857100000    23.628500000    23.835500000   0   0   0 # cp
    183      1   1 -0.100000    19.741200000    22.672600000    24.311400000   0   0   0 # cp
    184      1   1  0.000000    19.283700000    21.677100000    25.116300000   0   0   0 # cp
    185      1   1 -0.100000    17.971500000    21.682600000    25.536200000   0   0   0 # cp
    186      1   1 -0.100000    17.134300000    22.659500000    25.104400000   0   0   0 # cp
    187      1   1 -0.100000    14.543000000    22.930400000    23.272700000   0   0   0 # cp
    188      1   1 -0.100000    13.223300000    22.555200000    23.280800000   0   0   0 # cp
    189      1   1  0.000000    12.271500000    23.484300000    23.595100000   0   0   0 # cp
    190      1   1 -0.100000    12.599900000    24.786100000    23.767500000   0   0   0 # cp
    191      1   1 -0.100000    13.933000000    25.161900000    23.759200000   0   0   0 # cp
    192      1   1  0.000000    14.952500000    24.232800000    23.550300000   0   0   0 # cp
    193      1   2  0.100000    18.358600000    26.404800000    15.450700000   0   0   0 # h
    194      1   2  0.100000    19.580900000    26.679900000    19.526000000   0   0   0 # h
    195      1   2  0.100000    20.781100000    28.717900000    19.026400000   0   0   0 # h
    196      1   2  0.100000    19.726300000    28.344400000    14.920600000   0   0   0 # h
    197      1   2  0.100000    20.255800000    24.359900000    19.344400000   0   0   0 # h
    198      1   2  0.100000    21.972700000    22.704300000    18.849700000   0   0   0 # h
    199      1   2  0.100000    20.137200000    21.814300000    15.152600000   0   0   0 # h
    200      1   2  0.100000    18.436300000    23.497500000    15.595200000   0   0   0 # h
    201      1   2  0.100000    16.898000000    27.005800000    19.505600000   0   0   0 # h
    202      1   2  0.100000    16.293500000    26.871000000    21.862800000   0   0   0 # h
    203      1   2  0.100000    17.174000000    22.680400000    21.728300000   0   0   0 # h
    204      1   2  0.100000    17.646400000    22.839100000    19.445000000   0   0   0 # h
    205      1   2  0.100000    16.188500000    27.034500000    27.548600000   0   0   0 # h
    206      1   2  0.100000    15.587100000    25.259500000    26.087400000   0   0   0 # h
    207      1   2  0.100000    18.469300000    26.737700000    23.231800000   0   0   0 # h
    208      1   2  0.100000    18.937500000    28.535900000    24.641200000   0   0   0 # h
    209      1   2  0.100000    19.227700000    24.393300000    23.182700000   0   0   0 # h
    210      1   2  0.100000    20.739100000    22.581600000    23.916900000   0   0   0 # h
    211      1   2  0.100000    17.573000000    20.868800000    26.121300000   0   0   0 # h
    212      1   2  0.100000    16.108300000    22.675500000    25.506300000   0   0   0 # h
    213      1   2  0.100000    15.292700000    22.198200000    23.061200000   0   0   0 # h
    214      1   2  0.100000    12.989800000    21.497200000    23.130100000   0   0   0 # h
    215      1   2  0.100000    11.838700000    25.524700000    23.929400000   0   0   0 # h
    216      1   2  0.100000    14.173500000    26.198900000    23.929100000   0   0   0 # h
    217      1   1  0.000000    16.031900000    16.389600000    27.369700000   0   0   0 # cp
    218      1   1 -0.100000    16.907600000    16.077000000    28.382500000   0   0   0 # cp
    219      1   1 -0.100000    17.213100000    14.785600000    28.672600000   0   0   0 # cp
    220      1   1  0.000000    16.548200000    13.740700000    28.031500000   0   0   0 # cp
    221      1   1 -0.100000    15.642800000    14.081300000    27.030400000   0   0   0 # cp
    222      1   1 -0.100000    15.359700000    15.397700000    26.728500000   0   0   0 # cp
    223      1   2  0.100000    17.387100000    16.848900000    28.927500000   0   0   0 # h
    224      1   2  0.100000    17.942300000    14.585700000    29.399900000   0   0   0 # h
    225      1   2  0.100000    15.165200000    13.323100000    26.410100000   0   0   0 # h
    226      1   2  0.100000    14.659800000    15.630000000    25.932000000   0   0   0 # h
    227      1   1 -0.100000    14.538100000    11.383600000    28.239800000   0   0   0 # cp
    228      1   1  0.000000    15.871400000    11.164600000    27.925500000   0   0   0 # cp
    229      1   1 -0.100000    16.241000000     9.878070000    27.539100000   0   0   0 # cp
    230      1   1 -0.100000    15.317600000     8.884240000    27.416600000   0   0   0 # cp
    231      1   1  0.000000    14.000200000     9.137290000    27.651600000   0   0   0 # cp
    232      1   1 -0.100000    13.613900000    10.395000000    28.062700000   0   0   0 # cp
    233      1   3  0.000000    16.948800000    12.217800000    28.336400000   0   0   0 # c
    234      1   1  0.000000    17.160800000    11.816500000    29.875700000   0   0   0 # cp
    235      1   1 -0.100000    17.901900000    10.698100000    30.256100000   0   0   0 # cp
    236      1   1 -0.100000    17.951300000    10.297100000    31.576300000   0   0   0 # cp
    237      1   1  0.000000    17.323700000    11.034800000    32.545000000   0   0   0 # cp
    238      1   1 -0.100000    16.614200000    12.153200000    32.181800000   0   0   0 # cp
    239      1   1 -0.100000    16.512000000    12.499600000    30.852200000   0   0   0 # cp
    240      1   1 -0.100000    18.275300000    12.201400000    26.116300000   0   0   0 # cp
    241      1   1 -0.100000    19.348300000    12.656300000    25.401100000   0   0   0 # cp
    242      1   1  0.000000    20.534300000    13.091300000    25.988500000   0   0   0 # cp
    243      1   1 -0.100000    20.599300000    12.995000000    27.349000000   0   0   0 # cp
    244      1   1 -0.100000    19.509300000    12.549600000    28.098200000   0   0   0 # cp
    245      1   1  0.000000    18.292600000    12.219900000    27.483400000   0   0   0 # cp
    246      1   3  0.000000    21.670400000    13.978800000    25.228900000   0   0   0 # c
    247      1   1  0.000000    22.100100000    13.722000000    20.781600000   0   0   0 # cp
    248      1   1 -0.100000    22.416000000    14.865400000    21.464600000   0   0   0 # cp
    249      1   1 -0.100000    22.308600000    14.955900000    22.815600000   0   0   0 # cp
    250      1   1  0.000000    21.743700000    13.925000000    23.580200000   0   0   0 # cp
    251      1   1 -0.100000    21.364800000    12.825800000    22.837300000   0   0   0 # cp
    252      1   1 -0.100000    21.509800000    12.716600000    21.490700000   0   0   0 # cp
    253      1   1  0.000000    23.054900000    13.395200000    25.752800000   0   0   0 # cp
    254      1   1 -0.100000    23.728000000    13.868200000    26.883500000   0   0   0 # cp
    255      1   1 -0.100000    24.836200000    13.254500000    27.372500000   0   0   0 # cp
    256      1   1  0.000000    25.356700000    12.158600000    26.762300000   0   0   0 # cp
    257      1   1 -0.100000    24.726600000    11.647900000    25.676700000   0   0   0 # cp
    258      1   1 -0.100000    23.591400000    12.271900000    25.194700000   0   0   0 # cp
    259      1   1 -0.100000    22.349700000    16.546800000    25.772900000   0   0   0 # cp
    260      1   1 -0.100000    21.980100000    17.846900000    26.095500000   0   0   0 # cp
    261      1   1  0.000000    20.651900000    18.174800000    26.224500000   0   0   0 # cp
    262      1   1 -0.100000    19.722600000    17.211700000    26.033600000   0   0   0 # cp
    263      1   1 -0.100000    20.089600000    15.950800000    25.706100000   0   0   0 # cp
    264      1   1  0.000000    21.412700000    15.526400000    25.619600000   0   0   0 # cp
    265      1   2  0.100000    14.180800000    12.329000000    28.578800000   0   0   0 # h
    266      1   2  0.100000    17.313800000     9.620150000    27.454400000   0   0   0 # h
    267      1   2  0.100000    15.621400000     7.872850000    27.106400000   0   0   0 # h
    268      1   2  0.100000    12.565100000    10.610800000    28.294300000   0   0   0 # h
    269      1   2  0.100000    18.383300000    10.058400000    29.548000000   0   0   0 # h
    270      1   2  0.100000    18.500800000     9.404020000    31.832900000   0   0   0 # h
    271      1   2  0.100000    16.112200000    12.776300000    32.900100000   0   0   0 # h
    272      1   2  0.100000    15.897400000    13.316800000    30.588800000   0   0   0 # h
    273      1   2  0.100000    17.347000000    11.999700000    25.583300000   0   0   0 # h
    274      1   2  0.100000    19.230500000    12.823800000    24.331700000   0   0   0 # h
    275      1   2  0.100000    21.394300000    13.390500000    27.926800000   0   0   0 # h
    276      1   2  0.100000    19.606200000    12.621100000    29.169300000   0   0   0 # h
    277      1   2  0.100000    22.863100000    15.706000000    20.948700000   0   0   0 # h
    278      1   2  0.100000    22.690900000    15.830000000    23.258100000   0   0   0 # h
    279      1   2  0.100000    21.016700000    11.960100000    23.397800000   0   0   0 # h
    280      1   2  0.100000    21.165900000    11.824400000    20.984700000   0   0   0 # h
    281      1   2  0.100000    23.338500000    14.679100000    27.506600000   0   0   0 # h
    282      1   2  0.100000    25.362700000    13.698200000    28.200900000   0   0   0 # h
    283      1   2  0.100000    25.139700000    10.845200000    25.121900000   0   0   0 # h
    284      1   2  0.100000    23.140800000    11.788500000    24.346100000   0   0   0 # h
    285      1   2  0.100000    23.382400000    16.309500000    25.653600000   0   0   0 # h
    286      1   2  0.100000    22.745300000    18.617600000    26.143900000   0   0   0 # h
    287      1   2  0.100000    18.663900000    17.411500000    26.067800000   0   0   0 # h
    288      1   2  0.100000    19.261200000    15.311000000    25.427600000   0   0   0 # h
    289      1   1  0.000000    24.824500000     6.875010000    13.626800000   0   0   0 # cp
    290      1   1 -0.100000    23.749900000     6.031750000    13.685700000   0   0   0 # cp
    291      1   1 -0.100000    23.688200000     5.078320000    14.659600000   0   0   0 # cp
    292      1   1  0.000000    24.747300000     4.880340000    15.557400000   0   0   0 # cp
    293      1   1 -0.100000    25.800500000     5.785200000    15.501400000   0   0   0 # cp
    294      1   1 -0.100000    25.839900000     6.724760000    14.508500000   0   0   0 # cp
    295      1   2  0.100000    22.894900000     6.128010000    13.036900000   0   0   0 # h
    296      1   2  0.100000    22.752800000     4.556080000    14.752100000   0   0   0 # h
    297      1   2  0.100000    26.594400000     5.744340000    16.244600000   0   0   0 # h
    298      1   2  0.100000    26.710800000     7.360930000    14.424600000   0   0   0 # h
    299      1   1 -0.100000    26.909000000     2.829260000    15.825800000   0   0   0 # cp