LAMMPS data file. msi2lmp v3.9.11 / 6 Sep 2024 / CGCMM for wht_0_opt

   2880 atoms
   3168 bonds
   5568 angles
   8928 dihedrals
   1344 impropers

   4 atom types
   6 bond types
   9 angle types
  13 dihedral types
   3 improper types

    -0.473969127    50.266130873 xlo xhi
    -0.044232255    50.573975194 ylo yhi
    -0.746393458    44.238300392 zlo zhi
     0.481762220    -0.732599182    -0.199240822 xy xz yz

Masses

   1  12.011150 # cp
   2   1.007970 # h
   3  12.011150 # c
   4  12.011150 # c2

Pair Coeffs # lj/cut/coul/long

   1   0.1479999981   3.6170487995 # cp
   2   0.0380000011   2.4499714540 # h
   3   0.1599999990   3.4745050026 # c
   4   0.0389999952   3.8754094636 # c2

Bond Coeffs # harmonic

   1   480.0000     1.3400 # cp-cp
   2   283.0924     1.5100 # cp-c2
   3   363.4164     1.0800 # cp-h
   4   283.0924     1.5100 # cp-c
   5   322.7158     1.5260 # c2-c2
   6   340.6175     1.1050 # h-c2

Angle Coeffs # harmonic

   1    90.0000   120.0000 # cp-cp-cp
   2    44.2000   120.0000 # cp-cp-c2
   3    37.0000   120.0000 # cp-cp-h
   4    44.2000   120.0000 # cp-cp-c
   5    46.6000   110.5000 # cp-c-cp
   6    46.6000   110.5000 # cp-c2-c2
   7    44.4000   110.0000 # cp-c2-h
   8    44.4000   110.0000 # h-c2-c2
   9    39.5000   106.4000 # h-c2-h

Dihedral Coeffs # harmonic

  1     3.0000  -1   2 # cp-cp-cp-cp
  2     3.0000  -1   2 # cp-cp-cp-h
  3     3.0000  -1   2 # cp-cp-cp-c2
  4     3.0000  -1   2 # h-cp-cp-c2
  5     0.0000   1   2 # cp-cp-c2-c2
  6     0.0000   1   2 # cp-cp-c2-h
  7     3.0000  -1   2 # h-cp-cp-h
  8     3.0000  -1   2 # cp-cp-cp-c
  9     3.0000  -1   2 # h-cp-cp-c
 10     0.6750   1   4 # cp-cp-c-cp
 11     0.1581   1   3 # cp-c2-c2-cp
 12     0.1581   1   3 # cp-c2-c2-h
 13     0.1581   1   3 # h-c2-c2-h

Improper Coeffs # cvff

    1     0.3700  -1   2 # cp-cp-cp-c2
    2     0.3700  -1   2 # cp-cp-cp-h
    3     0.3700  -1   2 # cp-cp-cp-c

Atoms # full

      1      1   1  0.000000    22.008300000    19.398900000    23.312300000   0   0   0 # cp
      2      1   1 -0.100000    21.589800000    18.103200000    23.389300000   0   0   0 # cp
      3      1   1 -0.100000    21.330600000    17.563100000    24.612100000   0   0   0 # cp
      4      1   1  0.000000    21.524600000    18.266300000    25.813500000   0   0   0 # cp
      5      1   1 -0.100000    21.844200000    19.612600000    25.673400000   0   0   0 # cp
      6      1   1 -0.100000    22.094400000    20.165300000    24.455800000   0   0   0 # cp
      7      1   2  0.100000    21.509900000    17.487900000    22.522900000   0   0   0 # h
      8      1   2  0.100000    21.133000000    16.488500000    24.627600000   0   0   0 # h
      9      1   2  0.100000    22.015400000    20.185200000    26.558700000   0   0   0 # h
     10      1   2  0.100000    22.425800000    21.181900000    24.393400000   0   0   0 # h
     11      1   1 -0.100000    24.369200000    17.955100000    26.936800000   0   0   0 # cp
     12      1   1  0.000000    23.342400000    17.042900000    26.809100000   0   0   0 # cp
     13      1   1 -0.100000    23.632800000    15.862200000    26.180000000   0   0   0 # cp
     14      1   1 -0.100000    24.914400000    15.536500000    25.796700000   0   0   0 # cp
     15      1   1  0.000000     0.531303000    16.499200000    25.890000000   0   0   0 # cp
     16      1   1 -0.100000     0.262730000    17.676800000    26.516400000   0   0   0 # cp
     17      1   3  0.000000    21.829100000    17.512800000    27.156300000   0   0   0 # c
     18      1   1  0.000000    20.824000000    16.319100000    27.429800000   0   0   0 # cp
     19      1   1 -0.100000    21.203800000    15.235500000    28.216100000   0   0   0 # cp
     20      1   1 -0.100000    20.375600000    14.143700000    28.375200000   0   0   0 # cp
     21      1   1  0.000000    19.116800000    14.151800000    27.835200000   0   0   0 # cp
     22      1   1 -0.100000    18.699500000    15.245800000    27.128200000   0   0   0 # cp
     23      1   1 -0.100000    19.521400000    16.332900000    26.972500000   0   0   0 # cp
     24      1   1 -0.100000    22.530700000    18.342800000    29.516400000   0   0   0 # cp
     25      1   1 -0.100000    22.309400000    19.044900000    30.680100000   0   0   0 # cp
     26      1   1  0.000000    21.112400000    19.669500000    30.916700000   0   0   0 # cp
     27      1   1 -0.100000    20.185400000    19.674200000    29.876500000   0   0   0 # cp
     28      1   1 -0.100000    20.470900000    19.072800000    28.671200000   0   0   0 # cp
     29      1   1  0.000000    21.629300000    18.358700000    28.476000000   0   0   0 # cp
     30      1   3  0.000000    20.747400000    20.218100000    32.368200000   0   0   0 # c
     31      1   1  0.000000    19.549400000    16.399400000    34.148100000   0   0   0 # cp
     32      1   1 -0.100000    20.845200000    16.831500000    34.214600000   0   0   0 # cp
     33      1   1 -0.100000    21.209700000    18.027800000    33.668200000   0   0   0 # cp
     34      1   1  0.000000    20.310600000    18.815600000    32.996200000   0   0   0 # cp
     35      1   1 -0.100000    19.003500000    18.310400000    32.848200000   0   0   0 # cp
     36      1   1 -0.100000    18.639900000    17.128100000    33.428700000   0   0   0 # cp
     37      1   1  0.000000    19.645700000    21.377000000    32.376400000   0   0   0 # cp
     38      1   1 -0.100000    19.698900000    22.405800000    31.446000000   0   0   0 # cp
     39      1   1 -0.100000    18.755100000    23.368000000    31.397800000   0   0   0 # cp
     40      1   1  0.000000    17.803600000    23.439400000    32.372400000   0   0   0 # cp
     41      1   1 -0.100000    17.768600000    22.487500000    33.363700000   0   0   0 # cp
     42      1   1 -0.100000    18.672300000    21.449100000    33.352400000   0   0   0 # cp
     43      1   1 -0.100000    21.851100000    20.977800000    34.556100000   0   0   0 # cp
     44      1   1 -0.100000    22.810200000    21.590900000    35.281200000   0   0   0 # cp
     45      1   1  0.000000    23.796000000    22.293000000    34.633700000   0   0   0 # cp
     46      1   1 -0.100000    23.834900000    22.330200000    33.272900000   0   0   0 # cp
     47      1   1 -0.100000    22.895600000    21.664600000    32.533800000   0   0   0 # cp
     48      1   1  0.000000    21.871500000    20.959300000    33.175600000   0   0   0 # cp
     49      1   2  0.100000    24.112800000    18.961500000    27.309400000   0   0   0 # h
     50      1   2  0.100000    22.870000000    15.138400000    25.967700000   0   0   0 # h
     51      1   2  0.100000    -0.260620000    14.605100000    25.267800000   0   0   0 # h
     52      1   2  0.100000     1.054690000    18.421500000    26.673800000   0   0   0 # h
     53      1   2  0.100000    22.178500000    15.168600000    28.662800000   0   0   0 # h
     54      1   2  0.100000    20.721700000    13.279200000    28.934600000   0   0   0 # h
     55      1   2  0.100000    17.674800000    15.292200000    26.776600000   0   0   0 # h
     56      1   2  0.100000    19.154000000    17.179700000    26.438600000   0   0   0 # h
     57      1   2  0.100000    23.451200000    17.801300000    29.455100000   0   0   0 # h
     58      1   2  0.100000    23.011100000    18.903100000    31.500600000   0   0   0 # h
     59      1   2  0.100000    19.216800000    20.111300000    30.064000000   0   0   0 # h
     60      1   2  0.100000    19.715900000    19.074900000    27.872500000   0   0   0 # h
     61      1   2  0.100000    21.539600000    16.257700000    34.793200000   0   0   0 # h
     62      1   2  0.100000    22.270900000    18.256900000    33.743000000   0   0   0 # h
     63      1   2  0.100000    18.285100000    18.862600000    32.269200000   0   0   0 # h
     64      1   2  0.100000    17.598400000    16.862000000    33.385000000   0   0   0 # h
     65      1   2  0.100000    20.449400000    22.385100000    30.671700000   0   0   0 # h
     66      1   2  0.100000    18.676000000    24.065200000    30.591100000   0   0   0 # h
     67      1   2  0.100000    17.065100000    22.533000000    34.197500000   0   0   0 # h
     68      1   2  0.100000    18.607700000    20.709200000    34.137100000   0   0   0 # h
     69      1   2  0.100000    21.052000000    20.456000000    35.050400000   0   0   0 # h
     70      1   2  0.100000    22.753100000    21.552500000    36.374500000   0   0   0 # h
     71      1   2  0.100000    24.606700000    22.905000000    32.772000000   0   0   0 # h
     72      1   2  0.100000    23.053500000    21.652500000    31.459300000   0   0   0 # h
     73      1   1  0.000000     8.326890000    15.476200000    13.725700000   0   0   0 # cp
     74      1   1 -0.100000     7.558040000    16.600600000    14.035700000   0   0   0 # cp
     75      1   1 -0.100000     6.279320000    16.433300000    14.447000000   0   0   0 # cp
     76      1   1  0.000000     5.680070000    15.202300000    14.571900000   0   0   0 # cp
     77      1   1 -0.100000     6.463410000    14.104900000    14.338700000   0   0   0 # cp
     78      1   1 -0.100000     7.716200000    14.237800000    13.830000000   0   0   0 # cp
     79      1   2  0.100000     7.942400000    17.588000000    14.042600000   0   0   0 # h
     80      1   2  0.100000     5.690540000    17.292400000    14.757100000   0   0   0 # h
     81      1   2  0.100000     6.041880000    13.119400000    14.526800000   0   0   0 # h
     82      1   2  0.100000     8.261820000    13.329300000    13.618000000   0   0   0 # h
     83      1   1 -0.100000     3.609570000    13.366400000    13.294500000   0   0   0 # cp
     84      1   1  0.000000     3.492670000    13.702500000    14.629200000   0   0   0 # cp
     85      1   1 -0.100000     2.718360000    12.906100000    15.439600000   0   0   0 # cp
     86      1   1 -0.100000     2.187460000    11.737800000    14.985500000   0   0   0 # cp
     87      1   1  0.000000     2.494220000    11.333700000    13.716900000   0   0   0 # cp
     88      1   1 -0.100000     3.210220000    12.134100000    12.869400000   0   0   0 # cp
     89      1   3  0.000000     4.222170000    14.992700000    15.172500000   0   0   0 # c
     90      1   1  0.000000     3.134510000    16.064800000    14.698300000   0   0   0 # cp
     91      1   1 -0.100000     2.037830000    16.316400000    15.493500000   0   0   0 # cp
     92      1   1 -0.100000     1.014730000    17.128000000    15.063900000   0   0   0 # cp
     93      1   1  0.000000     1.003690000    17.656000000    13.797700000   0   0   0 # cp
     94      1   1 -0.100000     2.066430000    17.387400000    12.988800000   0   0   0 # cp
     95      1   1 -0.100000     3.136080000    16.628000000    13.424100000   0   0   0 # cp
     96      1   1 -0.100000     5.152210000    13.988300000    17.442100000   0   0   0 # cp
     97      1   1 -0.100000     5.796290000    14.159300000    18.638900000   0   0   0 # cp
     98      1   1  0.000000     5.965280000    15.428100000    19.162400000   0   0   0 # cp
     99      1   1 -0.100000     5.399870000    16.492100000    18.503200000   0   0   0 # cp
    100      1   1 -0.100000     4.767400000    16.316400000    17.298800000   0   0   0 # cp
    101      1   1  0.000000     4.673310000    15.077100000    16.717700000   0   0   0 # cp
    102      1   3  0.000000     6.728630000    15.773300000    20.525200000   0   0   0 # c
    103      1   1  0.000000     3.236110000    16.462400000    23.028700000   0   0   0 # cp
    104      1   1 -0.100000     3.693020000    15.218200000    22.771400000   0   0   0 # cp
    105      1   1 -0.100000     4.757300000    15.008500000    21.942600000   0   0   0 # cp
    106      1   1  0.000000     5.485750000    16.047800000    21.442500000   0   0   0 # cp
    107      1   1 -0.100000     5.007690000    17.320600000    21.689400000   0   0   0 # cp
    108      1   1 -0.100000     3.907160000    17.533600000    22.492000000   0   0   0 # cp
    109      1   1  0.000000     7.787080000    16.958700000    20.328600000   0   0   0 # cp
    110      1   1 -0.100000     8.448010000    17.127300000    19.133000000   0   0   0 # cp
    111      1   1 -0.100000     9.425930000    18.074700000    18.962300000   0   0   0 # cp
    112      1   1  0.000000     9.778530000    18.867600000    20.010700000   0   0   0 # cp
    113      1   1 -0.100000     9.154510000    18.727200000    21.235300000   0   0   0 # cp
    114      1   1 -0.100000     8.152980000    17.792800000    21.387200000   0   0   0 # cp
    115      1   1 -0.100000     7.909930000    14.688300000    22.567500000   0   0   0 # cp
    116      1   1 -0.100000     8.890960000    13.941300000    23.113200000   0   0   0 # cp
    117      1   1  0.000000     9.666420000    13.124500000    22.313700000   0   0   0 # cp
    118      1   1 -0.100000     9.479430000    13.131400000    20.960200000   0   0   0 # cp
    119      1   1 -0.100000     8.524050000    13.919900000    20.375800000   0   0   0 # cp
    120      1   1  0.000000     7.712700000    14.711300000    21.182600000   0   0   0 # cp
    121      1   2  0.100000     4.088050000    14.011800000    12.569900000   0   0   0 # h
    122      1   2  0.100000     2.580560000    13.141500000    16.485000000   0   0   0 # h
    123      1   2  0.100000     1.734870000    11.045800000    15.684500000   0   0   0 # h
    124      1   2  0.100000     3.403710000    11.840000000    11.840600000   0   0   0 # h
    125      1   2  0.100000     1.955570000    15.850900000    16.500400000   0   0   0 # h
    126      1   2  0.100000     0.195330000    17.302400000    15.767100000   0   0   0 # h
    127      1   2  0.100000     2.139900000    17.761200000    11.972700000   0   0   0 # h
    128      1   2  0.100000     3.945460000    16.443700000    12.742400000   0   0   0 # h
    129      1   2  0.100000     5.103850000    12.988300000    17.032900000   0   0   0 # h
    130      1   2  0.100000     6.209520000    13.331300000    19.187400000   0   0   0 # h
    131      1   2  0.100000     5.475820000    17.498400000    18.929000000   0   0   0 # h
    132      1   2  0.100000     4.398200000    17.183600000    16.771800000   0   0   0 # h
    133      1   2  0.100000     3.203460000    14.350000000    23.184900000   0   0   0 # h
    134      1   2  0.100000     5.091120000    13.977300000    21.763800000   0   0   0 # h
    135      1   2  0.100000     5.544530000    18.160100000    21.174900000   0   0   0 # h
    136      1   2  0.100000     3.557470000    18.540900000    22.643900000   0   0   0 # h
    137      1   2  0.100000     8.200710000    16.497200000    18.284900000   0   0   0 # h
    138      1   2  0.100000     9.938860000    18.200500000    18.036300000   0   0   0 # h
    139      1   2  0.100000     9.457920000    19.363100000    22.034600000   0   0   0 # h
    140      1   2  0.100000     7.715410000    17.666700000    22.352700000   0   0   0 # h
    141      1   2  0.100000     7.325400000    15.336200000    23.217400000   0   0   0 # h
    142      1   2  0.100000     9.035200000    13.908300000    24.187100000   0   0   0 # h
    143      1   2  0.100000    10.082200000    12.493400000    20.331900000   0   0   0 # h
    144      1   2  0.100000     8.412370000    13.935500000    19.287200000   0   0   0 # h
    145      1   1  0.000000     0.509673000     6.218280000     1.309950000   0   0   0 # cp
    146      1   1 -0.100000     0.702586000     5.312910000     2.328110000   0   0   0 # cp
    147      1   1 -0.100000     0.826309000     5.768800000     3.621310000   0   0   0 # cp
    148      1   1  0.000000     0.919673000     7.121930000     3.904600000   0   0   0 # cp
    149      1   1 -0.100000     0.844238000     7.998480000     2.836120000   0   0   0 # cp
    150      1   1 -0.100000     0.664595000     7.551930000     1.547620000   0   0   0 # cp
    151      1   2  0.100000     0.621390000     4.260140000     2.175480000   0   0   0 # h
    152      1   2  0.100000     0.722575000     5.081180000     4.448480000   0   0   0 # h
    153      1   2  0.100000     0.794253000     9.044630000     3.021000000   0   0   0 # h
    154      1   2  0.100000     0.494935000     8.268780000     0.736000000   0   0   0 # h
    155      1   1 -0.100000    23.662300000     7.171930000     5.561010000   0   0   0 # cp
    156      1   1  0.000000    24.652700000     8.143610000     5.420750000   0   0   0 # cp
    157      1   1 -0.100000    24.241000000     9.414910000     5.071650000   0   0   0 # cp
    158      1   1 -0.100000    22.946800000     9.652690000     4.699710000   0   0   0 # cp
    159      1   1  0.000000    22.026600000     8.619800000     4.592290000   0   0   0 # cp
    160      1   1 -0.100000    22.412400000     7.394300000     5.099300000   0   0   0 # cp
    161      1   3  0.000000     0.833297000     7.690110000     5.404620000   0   0   0 # c
    162      1   1  0.000000     1.810510000     8.932290000     5.682580000   0   0   0 # cp
    163      1   1 -0.100000     1.630890000     9.755970000     6.790240000   0   0   0 # cp
    164      1   1 -0.100000     2.481410000    10.807400000     7.019920000   0   0   0 # cp
    165      1   1  0.000000     3.515770000    11.049000000     6.176500000   0   0   0 # cp
    166      1   1 -0.100000     3.743320000    10.199900000     5.141030000   0   0   0 # cp
    167      1   1 -0.100000     2.937100000     9.122860000     4.911810000   0   0   0 # cp
    168      1   1 -0.100000     0.657061000     6.431380000     7.700370000   0   0   0 # cp
    169      1   1 -0.100000     1.181660000     5.638720000     8.706130000   0   0   0 # cp
    170      1   1  0.000000     2.474150000     5.135600000     8.601310000   0   0   0 # cp
    171      1   1 -0.100000     3.160480000     5.405360000     7.432730000   0   0   0 # cp
    172      1   1 -0.100000     2.598070000     6.126380000     6.419830000   0   0   0 # cp
    173      1   1  0.000000     1.337500000     6.687230000     6.516680000   0   0   0 # cp
    174      1   3  0.000000     3.211630000     4.430370000     9.867410000   0   0   0 # c
    175      1   1  0.000000     3.382210000     7.854810000    12.587300000   0   0   0 # cp
    176      1   1 -0.100000     2.416930000     6.904470000    12.764600000   0   0   0 # cp
    177      1   1 -0.100000     2.288650000     5.878760000    11.863800000   0   0   0 # cp
    178      1   1  0.000000     3.255640000     5.668510000    10.876100000   0   0   0 # cp
    179      1   1 -0.100000     4.228110000     6.667340000    10.685800000   0   0   0 # cp
    180      1   1 -0.100000     4.251820000     7.745920000    11.532000000   0   0   0 # cp
    181      1   1  0.000000     4.661440000     3.784580000     9.656990000   0   0   0 # cp
    182      1   1 -0.100000     4.796990000     2.986410000     8.538020000   0   0   0 # cp
    183      1   1 -0.100000     5.900230000     2.220660000     8.329780000   0   0   0 # cp
    184      1   1  0.000000     6.903090000     2.211070000     9.262610000   0   0   0 # cp
    185      1   1 -0.100000     6.840380000     3.061240000    10.331700000   0   0   0 # cp
    186      1   1 -0.100000     5.712940000     3.833740000    10.527500000   0   0   0 # cp
    187      1   1 -0.100000     2.676370000     2.731940000    11.753200000   0   0   0 # cp
    188      1   1 -0.100000     1.968620000     1.722260000    12.326700000   0   0   0 # cp
    189      1   1  0.000000     0.986978000     1.101840000    11.602300000   0   0   0 # cp
    190      1   1 -0.100000     0.787797000     1.474830000    10.282300000   0   0   0 # cp
    191      1   1 -0.100000     1.470030000     2.512880000     9.750260000   0   0   0 # cp
    192      1   1  0.000000     2.414310000     3.200690000    10.491400000   0   0   0 # cp
    193      1   2  0.100000    23.888900000     6.167560000     5.830540000   0   0   0 # h
    194      1   2  0.100000    24.987100000    10.188800000     4.919950000   0   0   0 # h
    195      1   2  0.100000    22.715000000    10.628500000     4.298070000   0   0   0 # h
    196      1   2  0.100000    21.743100000     6.551010000     5.093500000   0   0   0 # h
    197      1   2  0.100000     0.767816000     9.629460000     7.413690000   0   0   0 # h
    198      1   2  0.100000     2.306220000    11.420500000     7.893920000   0   0   0 # h
    199      1   2  0.100000     4.649180000    10.244700000     4.559200000   0   0   0 # h
    200      1   2  0.100000     3.217770000     8.518380000     4.051180000   0   0   0 # h
    201      1   2  0.100000    25.062700000     6.859480000     7.921660000   0   0   0 # h
    202      1   2  0.100000     0.591038000     5.469630000     9.624700000   0   0   0 # h
    203      1   2  0.100000     4.208400000     5.129990000     7.345870000   0   0   0 # h
    204      1   2  0.100000     3.205110000     6.309950000     5.533910000   0   0   0 # h
    205      1   2  0.100000     1.696900000     6.943420000    13.572300000   0   0   0 # h
    206      1   2  0.100000     1.478650000     5.170930000    12.040300000   0   0   0 # h
    207      1   2  0.100000     4.968810000     6.594950000     9.895850000   0   0   0 # h
    208      1   2  0.100000     5.020360000     8.483740000    11.347800000   0   0   0 # h
    209      1   2  0.100000     3.963600000     2.843810000     7.844650000   0   0   0 # h
    210      1   2  0.100000     5.925590000     1.524630000     7.513910000   0   0   0 # h
    211      1   2  0.100000     7.608080000     3.085950000    11.083300000   0   0   0 # h
    212      1   2  0.100000     5.660880000     4.411330000    11.465700000   0   0   0 # h
    213      1   2  0.100000     3.393110000     3.206520000    12.354800000   0   0   0 # h
    214      1   2  0.100000     2.157120000     1.349560000    13.318900000   0   0   0 # h
    215      1   2  0.100000     0.039200100     0.990546000     9.669650000   0   0   0 # h
    216      1   2  0.100000     1.255810000     2.750010000     8.724220000   0   0   0 # h
    217      1   1  0.000000    15.760300000    10.486200000    35.297900000   0   0   0 # cp
    218      1   1 -0.100000    17.107200000    10.297300000    35.190800000   0   0   0 # cp
    219      1   1 -0.100000    17.848300000    10.055400000    36.320000000   0   0   0 # cp
    220      1   1  0.000000    17.288300000    10.007200000    37.598100000   0   0   0 # cp
    221      1   1 -0.100000    15.904500000    10.165500000    37.655000000   0   0   0 # cp
    222      1   1 -0.100000    15.152800000    10.355300000    36.529800000   0   0   0 # cp
    223      1   2  0.100000    17.607700000    10.414700000    34.252100000   0   0   0 # h
    224      1   2  0.100000    18.933000000    10.108700000    36.242400000   0   0   0 # h
    225      1   2  0.100000    15.367600000    10.241500000    38.597300000   0   0   0 # h
    226      1   2  0.100000    14.080300000    10.570000000    36.605800000   0   0   0 # h
    227      1   1 -0.100000    17.608700000    12.807200000    38.668200000   0   0   0 # cp
    228      1   1  0.000000    18.592800000    11.829300000    38.607400000   0   0   0 # cp
    229      1   1 -0.100000    19.797100000    12.176600000    38.019000000   0   0   0 # cp
    230      1   1 -0.100000    20.004900000    13.418300000    37.510400000   0   0   0 # cp
    231      1   1  0.000000    18.949900000    14.314700000    37.400200000   0   0   0 # cp
    232      1   1 -0.100000    17.786600000    14.027800000    38.058600000   0   0   0 # cp
    233      1   3  0.000000    18.235700000    10.279700000    38.897500000   0   0   0 # c
    234      1   1  0.000000    19.544600000     9.370230000    39.046200000   0   0   0 # cp
    235      1   1 -0.100000    20.601100000     9.660630000    39.915600000   0   0   0 # cp
    236      1   1 -0.100000    21.748100000     8.878490000    39.954600000   0   0   0 # cp
    237      1   1  0.000000    21.852000000     7.807030000    39.119800000   0   0   0 # cp
    238      1   1 -0.100000    20.828700000     7.460150000    38.279600000   0   0   0 # cp
    239      1   1 -0.100000    19.675000000     8.214270000    38.286600000   0   0   0 # cp
    240      1   1 -0.100000    17.371400000    10.861400000    41.269000000   0   0   0 # cp
    241      1   1 -0.100000    16.704200000    10.565600000    42.432000000   0   0   0 # cp
    242      1   1  0.000000    16.176500000     9.319230000    42.673500000   0   0   0 # cp
    243      1   1 -0.100000    16.342800000     8.396470000    41.657900000   0   0   0 # cp
    244      1   1 -0.100000    16.955500000     8.687400000    40.473200000   0   0   0 # cp
    245      1   1  0.000000    17.492300000     9.940980000    40.262100000   0   0   0 # cp
    246      1   3  0.000000    15.473900000     8.876060000    44.060300000   0   0   0 # c
    247      1   1  0.000000    19.862000000     8.529910000     1.357110000   0   0   0 # cp
    248      1   1 -0.100000    19.270600000     9.768520000     1.293940000   0   0   0 # cp
    249      1   1 -0.100000    18.107800000     9.897270000     0.631802000   0   0   0 # cp
    250      1   1  0.000000    17.523099182     8.854500822    -0.051793850   0   0   1 # cp
    251      1   1 -0.100000    18.155199182     7.653650822    -0.026993850   0   0   1 # cp
    252      1   1 -0.100000    19.324400000     7.496220000     0.661812000   0   0   0 # cp
    253      1   1  0.000000    14.429100000     7.661940000    43.992600000   0   0   0 # cp
    254      1   1 -0.100000    13.495000000     7.539930000    43.000500000   0   0   0 # cp
    255      1   1 -0.100000    12.502300000     6.588420000    43.015800000   0   0   0 # cp
    256      1   1  0.000000    12.443900000     5.699980000    44.054300000   0   0   0 # cp
    257      1   1 -0.100000    14.085799172     5.995920819     0.100706773   0   0   0 # cp
    258      1   1 -0.100000    15.073399172     6.953090819     0.081906773   0   0   0 # cp
    259      1   1 -0.100000    15.028600000    10.203200000     1.087120000   0   0   0 # cp
    260      1   1 -0.100000    14.248600000    11.162500000     1.636490000   0   0   0 # cp
    261      1   1  0.000000    13.647700000    12.105900000     0.822260000   0   0   0 # cp
    262      1   1 -0.100000    13.765599182    12.024840822    -0.549493850   0   0   1 # cp
    263      1   1 -0.100000    13.816900000    10.851400000    43.892400000   0   0   0 # cp
    264      1   1  0.000000    15.250799182    10.158190822    -0.294593850   0   0   1 # cp
    265      1   2  0.100000    16.687800000    12.598400000    39.137700000   0   0   0 # h
    266      1   2  0.100000    20.552600000    11.439200000    37.804800000   0   0   0 # h
    267      1   2  0.100000    20.965900000    13.575500000    36.999500000   0   0   0 # h
    268      1   2  0.100000    16.985400000    14.782800000    38.038100000   0   0   0 # h
    269      1   2  0.100000    20.483100000    10.489900000    40.607500000   0   0   0 # h
    270      1   2  0.100000    22.507300000     9.132930000    40.652000000   0   0   0 # h
    271      1   2  0.100000    20.888400000     6.589540000    37.653800000   0   0   0 # h
    272      1   2  0.100000    18.881900000     7.864360000    37.598100000   0   0   0 # h
    273      1   2  0.100000    17.889800000    11.804400000    41.189300000   0   0   0 # h
    274      1   2  0.100000    16.717200000    11.305400000    43.225300000   0   0   0 # h
    275      1   2  0.100000    16.017600000     7.368470000    41.776000000   0   0   0 # h
    276      1   2  0.100000    17.002800000     7.995080000    39.706600000   0   0   0 # h
    277      1   2  0.100000    19.752200000    10.637400000     1.733960000   0   0   0 # h
    278      1   2  0.100000    17.681200000    10.891000000     0.541526000   0   0   0 # h
    279      1   2  0.100000    17.737799182     6.869440822    -0.648493850   0   0   1 # h
    280      1   2  0.100000    19.792100000     6.524380000     0.687293000   0   0   0 # h
    281      1   2  0.100000    13.430100000     8.264660000    42.194200000   0   0   0 # h
    282      1   2  0.100000    11.776400000     6.563760000    42.249800000   0   0   0 # h
    283      1   2  0.100000    13.990700000     5.323410000     0.941623000   0   0   0 # h
    284      1   2  0.100000    15.679200000     7.028740000     0.946114000   0   0   0 # h
    285      1   2  0.100000    15.548400000     9.507060000     1.756440000   0   0   0 # h
    286      1   2  0.100000    14.108700000    11.214000000     2.720420000   0   0   0 # h
    287      1   2  0.100000    12.502500000    12.530800000    43.798000000   0   0   0 # h
    288      1   2  0.100000    13.897400000    10.778700000    42.810200000   0   0   0 # h
    289      1   1  0.000000     1.141660000     3.724160000    44.028100000   0   0   0 # cp
    290      1   1 -0.100000     2.230690000     4.569650000    44.108800000   0   0   0 # cp
    291      1   1 -0.100000     3.489390000     4.127330000    43.767800000   0   0   0 # cp
    292      1   1  0.000000     3.687380000     2.819900000    43.352100000   0   0   0 # cp
    293      1   1 -0.100000     2.588670000     1.984530000    43.315400000   0   0   0 # cp
    294      1   1 -0.100000     1.361190000     2.441880000    43.620100000   0   0   0 # cp
    295      1   2  0.100000     2.841799182     5.804400822    -0.583093850   0   0   1 # h
    296      1   2  0.100000     4.312320000     4.813550000    43.773200000   0   0   0 # h
    297      1   2  0.100000     2.634850000     0.953512000    42.984400000   0   0   0 # h
    298      1   2  0.100000     0.496642000     1.779150000    43.538700000   0   0   0 # h
    299      1   1 -0.100000     5.823129182     0.699519822    -0.343793850   0   0   1 # cp