LAMMPS data file. msi2lmp v3.9.11 / 6 Sep 2024 / CGCMM for win_1_opt

   2880 atoms
   3168 bonds
   5568 angles
   8928 dihedrals
   1344 impropers

   4 atom types
   6 bond types
   9 angle types
  13 dihedral types
   3 improper types

    -3.012439202    54.599960798 xlo xhi
     1.444236392    58.864267422 ylo yhi
     0.180422438    29.466716435 zlo zhi
     0.205846312    -0.303271911    -0.045787390 xy xz yz

Masses

   1  12.011150 # cp
   2   1.007970 # h
   3  12.011150 # c
   4  12.011150 # c2

Pair Coeffs # lj/cut/coul/long

   1   0.1479999981   3.6170487995 # cp
   2   0.0380000011   2.4499714540 # h
   3   0.1599999990   3.4745050026 # c
   4   0.0389999952   3.8754094636 # c2

Bond Coeffs # harmonic

   1   480.0000     1.3400 # cp-cp
   2   283.0924     1.5100 # cp-c2
   3   363.4164     1.0800 # cp-h
   4   283.0924     1.5100 # cp-c
   5   322.7158     1.5260 # c2-c2
   6   340.6175     1.1050 # h-c2

Angle Coeffs # harmonic

   1    90.0000   120.0000 # cp-cp-cp
   2    44.2000   120.0000 # cp-cp-c2
   3    37.0000   120.0000 # cp-cp-h
   4    44.2000   120.0000 # cp-cp-c
   5    46.6000   110.5000 # cp-c-cp
   6    46.6000   110.5000 # cp-c2-c2
   7    44.4000   110.0000 # cp-c2-h
   8    44.4000   110.0000 # h-c2-c2
   9    39.5000   106.4000 # h-c2-h

Dihedral Coeffs # harmonic

  1     3.0000  -1   2 # cp-cp-cp-cp
  2     3.0000  -1   2 # cp-cp-cp-h
  3     3.0000  -1   2 # cp-cp-cp-c2
  4     3.0000  -1   2 # h-cp-cp-c2
  5     0.0000   1   2 # cp-cp-c2-c2
  6     0.0000   1   2 # cp-cp-c2-h
  7     3.0000  -1   2 # h-cp-cp-h
  8     3.0000  -1   2 # cp-cp-cp-c
  9     3.0000  -1   2 # h-cp-cp-c
 10     0.6750   1   4 # cp-cp-c-cp
 11     0.1581   1   3 # cp-c2-c2-cp
 12     0.1581   1   3 # cp-c2-c2-h
 13     0.1581   1   3 # h-c2-c2-h

Improper Coeffs # cvff

    1     0.3700  -1   2 # cp-cp-cp-c2
    2     0.3700  -1   2 # cp-cp-cp-h
    3     0.3700  -1   2 # cp-cp-cp-c

Atoms # full

      1      1   1  0.000000     4.092890000     3.352240000    14.382700000   0   0   0 # cp
      2      1   1 -0.100000     3.019330000     3.868250000    15.081800000   0   0   0 # cp
      3      1   1 -0.100000     3.105540000     5.074770000    15.697000000   0   0   0 # cp
      4      1   1  0.000000     4.294830000     5.783020000    15.692900000   0   0   0 # cp
      5      1   1 -0.100000     5.368020000     5.256030000    14.973300000   0   0   0 # cp
      6      1   1 -0.100000     5.250120000     4.084650000    14.277200000   0   0   0 # cp
      7      1   2  0.100000     2.115673198     3.285320000    15.189700000   0   0   0 # h
      8      1   2  0.100000     2.257320000     5.446190000    16.243700000   0   0   0 # h
      9      1   2  0.100000     6.293850000     5.822010000    14.926300000   0   0   0 # h
     10      1   2  0.100000     6.103850000     3.714440000    13.710500000   0   0   0 # h
     11      1   1 -0.100000     6.707560000     6.333750000    17.588200000   0   0   0 # cp
     12      1   1  0.000000     5.919300000     7.411090000    17.130400000   0   0   0 # cp
     13      1   1 -0.100000     6.475470000     8.680650000    17.277400000   0   0   0 # cp
     14      1   1 -0.100000     7.779060000     8.852190000    17.713900000   0   0   0 # cp
     15      1   1  0.000000     8.533700000     7.759770000    18.125600000   0   0   0 # cp
     16      1   1 -0.100000     8.002220000     6.511620000    18.055600000   0   0   0 # cp
     17      1   3  0.000000     4.444310000     7.155850000    16.545600000   0   0   0 # c
     18      1   1  0.000000     3.685260000     7.157540000    17.949600000   0   0   0 # cp
     19      1   1 -0.100000     3.217510000     8.323010000    18.509100000   0   0   0 # cp
     20      1   1 -0.100000     2.453080000     8.300000000    19.651800000   0   0   0 # cp
     21      1   1  0.000000     2.290320000     7.086340000    20.330300000   0   0   0 # cp
     22      1   1 -0.100000     2.879900000     5.946000000    19.837700000   0   0   0 # cp
     23      1   1 -0.100000     3.555850000     5.976960000    18.665500000   0   0   0 # cp
     24      1   1 -0.100000     4.821520000     8.595810000    14.473200000   0   0   0 # cp
     25      1   1 -0.100000     4.361200000     9.270700000    13.377400000   0   0   0 # cp
     26      1   1  0.000000     2.992110000     9.437140000    13.149100000   0   0   0 # cp
     27      1   1 -0.100000     2.157073198     9.175020000    14.223600000   0   0   0 # cp
     28      1   1 -0.100000     2.607980000     8.433910000    15.298000000   0   0   0 # cp
     29      1   1  0.000000     3.957520000     8.129330000    15.427800000   0   0   0 # cp
     30      1   3  0.000000     2.386470000    10.126700000    11.818000000   0   0   0 # c
     31      1   1  0.000000     1.360373198    14.337100000    12.145600000   0   0   0 # cp
     32      1   1 -0.100000     2.492530000    13.879300000    12.793700000   0   0   0 # cp
     33      1   1 -0.100000     2.689640000    12.509800000    12.874800000   0   0   0 # cp
     34      1   1  0.000000     1.885573198    11.598000000    12.202600000   0   0   0 # cp
     35      1   1 -0.100000     0.652573198    12.116800000    11.774400000   0   0   0 # cp
     36      1   1 -0.100000     0.412473198    13.447800000    11.698700000   0   0   0 # cp
     37      1   1  0.000000     1.159673198     9.355040000    11.097500000   0   0   0 # cp
     38      1   1 -0.100000     0.384773198     8.391650000    11.687200000   0   0   0 # cp
     39      1   1 -0.100000    -0.781200000     7.946220000    11.128200000   1   0   0 # cp
     40      1   1  0.000000    -1.230800000     8.481990000     9.922680000   1   0   0 # cp
     41      1   1 -0.100000    -0.388400000     9.311350000     9.214410000   1   0   0 # cp
     42      1   1 -0.100000     0.762973198     9.750500000     9.804870000   0   0   0 # cp
     43      1   1 -0.100000     4.196210000    11.237500000    10.276000000   0   0   0 # cp
     44      1   1 -0.100000     4.963310000    11.235100000     9.157030000   0   0   0 # cp
     45      1   1  0.000000     5.124850000    10.079900000     8.419490000   0   0   0 # cp
     46      1   1 -0.100000     4.652730000     8.902480000     8.942430000   0   0   0 # cp
     47      1   1 -0.100000     3.927240000     8.909500000    10.096800000   0   0   0 # cp
     48      1   1  0.000000     3.551410000    10.087200000    10.702900000   0   0   0 # cp
     49      1   2  0.100000     6.375390000     5.313240000    17.523800000   0   0   0 # h
     50      1   2  0.100000     5.908960000     9.573320000    17.017400000   0   0   0 # h
     51      1   2  0.100000     8.212800000     9.838970000    17.726800000   0   0   0 # h
     52      1   2  0.100000     8.536390000     5.639390000    18.405900000   0   0   0 # h
     53      1   2  0.100000     3.381750000     9.240890000    17.974400000   0   0   0 # h
     54      1   2  0.100000     2.019680000     9.198830000    20.053700000   0   0   0 # h
     55      1   2  0.100000     2.763630000     4.991290000    20.355000000   0   0   0 # h
     56      1   2  0.100000     3.966370000     5.038580000    18.294400000   0   0   0 # h
     57      1   2  0.100000     5.886650000     8.367830000    14.529400000   0   0   0 # h
     58      1   2  0.100000     5.099700000     9.497020000    12.618900000   0   0   0 # h
     59      1   2  0.100000     1.095073198     9.417180000    14.177700000   0   0   0 # h
     60      1   2  0.100000     1.848873198     8.092880000    16.005200000   0   0   0 # h
     61      1   2  0.100000     3.237340000    14.574500000    13.122200000   0   0   0 # h
     62      1   2  0.100000     3.620880000    12.191900000    13.306200000   0   0   0 # h
     63      1   2  0.100000    -0.142500000    11.491900000    11.394500000   1   0   0 # h
     64      1   2  0.100000    -0.503400000    13.830300000    11.229000000   1   0   0 # h
     65      1   2  0.100000     0.665673198     7.941580000    12.623400000   0   0   0 # h
     66      1   2  0.100000    -1.441000000     7.271160000    11.651100000   1   0   0 # h
     67      1   2  0.100000    -0.699500000     9.661220000     8.240010000   1   0   0 # h
     68      1   2  0.100000     1.306473198    10.527200000     9.317060000   0   0   0 # h
     69      1   2  0.100000     4.073420000    12.188200000    10.727800000   0   0   0 # h
     70      1   2  0.100000     5.432920000    12.157700000     8.818470000   0   0   0 # h
     71      1   2  0.100000     4.791750000     7.966490000     8.417880000   0   0   0 # h
     72      1   2  0.100000     3.520540000     7.968120000    10.485600000   0   0   0 # h
     73      1   1  0.000000     2.330210000    47.422600000    18.507400000   0   0   0 # cp
     74      1   1 -0.100000     1.007973198    47.595000000    18.174200000   0   0   0 # cp
     75      1   1 -0.100000     0.469273198    48.848600000    18.016500000   0   0   0 # cp
     76      1   1  0.000000     1.263773198    49.953700000    18.110600000   0   0   0 # cp
     77      1   1 -0.100000     2.629680000    49.756900000    18.194400000   0   0   0 # cp
     78      1   1 -0.100000     3.153930000    48.504000000    18.402400000   0   0   0 # cp
     79      1   2  0.100000     0.302873198    46.756200000    18.166900000   0   0   0 # h
     80      1   2  0.100000    -0.564400000    48.984200000    17.832200000   1   0   0 # h
     81      1   2  0.100000     3.306810000    50.606800000    18.142400000   0   0   0 # h
     82      1   2  0.100000     4.235860000    48.406600000    18.477100000   0   0   0 # h
     83      1   1 -0.100000     1.666973198    51.725000000    20.529700000   0   0   0 # cp
     84      1   1  0.000000     1.321173198    52.318700000    19.310700000   0   0   0 # cp
     85      1   1 -0.100000     1.369073198    53.690100000    19.254600000   0   0   0 # cp
     86      1   1 -0.100000     1.718873198    54.448700000    20.355300000   0   0   0 # cp
     87      1   1  0.000000     2.058873198    53.841300000    21.533000000   0   0   0 # cp
     88      1   1 -0.100000     2.062673198    52.470900000    21.606400000   0   0   0 # cp
     89      1   3  0.000000     0.680273198    51.437700000    18.151000000   0   0   0 # c
     90      1   1  0.000000    -0.834700000    51.579900000    18.595600000   1   0   0 # cp
     91      1   1 -0.100000    -1.667700000    52.548000000    18.037800000   1   0   0 # cp
     92      1   1 -0.100000    -2.966500000    52.705400000    18.438800000   1   0   0 # cp
     93      1   1  0.000000    54.121500000    51.912800000    19.410900000   0   0   0 # cp
     94      1   1 -0.100000    -2.692800000    50.967300000    20.015900000   1   0   0 # cp
     95      1   1 -0.100000    -1.386100000    50.799800000    19.647600000   1   0   0 # cp
     96      1   1 -0.100000     2.089173198    52.517600000    16.273300000   0   0   0 # cp
     97      1   1 -0.100000     2.308280000    52.914900000    14.970600000   0   0   0 # cp
     98      1   1  0.000000     1.431473198    52.605200000    13.956000000   0   0   0 # cp
     99      1   1 -0.100000     0.336173198    51.836600000    14.309100000   0   0   0 # cp
    100      1   1 -0.100000     0.142273198    51.426500000    15.609200000   0   0   0 # cp
    101      1   1  0.000000     0.956473198    51.830500000    16.643200000   0   0   0 # cp
    102      1   3  0.000000     1.660173198    53.199000000    12.459700000   0   0   0 # c
    103      1   1  0.000000     2.785480038    57.489510555    12.873100000   0  -1   0 # cp
    104      1   1 -0.100000     3.297070000    56.768100000    11.830200000   0   0   0 # cp
    105      1   1 -0.100000     2.976880000    55.424800000    11.672600000   0   0   0 # cp
    106      1   1  0.000000     2.155373198    54.759800000    12.597700000   0   0   0 # cp
    107      1   1 -0.100000     1.627873198    55.560000000    13.610800000   0   0   0 # cp
    108      1   1 -0.100000     1.948173198    56.869700000    13.763300000   0   0   0 # cp
    109      1   1  0.000000     0.221573198    53.146300000    11.717800000   0   0   0 # cp
    110      1   1 -0.100000    -0.216400000    51.929200000    11.209200000   1   0   0 # cp
    111      1   1 -0.100000    -1.534900000    51.732400000    10.869300000   1   0   0 # cp
    112      1   1  0.000000    -2.394400000    52.785800000    10.884400000   1   0   0 # cp
    113      1   1 -0.100000    -1.986300000    54.020000000    11.323700000   1   0   0 # cp
    114      1   1 -0.100000    -0.690500000    54.191100000    11.736800000   1   0   0 # cp
    115      1   1 -0.100000     2.787350000    52.175300000    10.335600000   0   0   0 # cp
    116      1   1 -0.100000     3.823030000    51.566300000     9.650820000   0   0   0 # cp
    117      1   1  0.000000     4.977590000    51.223500000    10.353200000   0   0   0 # cp
    118      1   1 -0.100000     5.060160000    51.449100000    11.687300000   0   0   0 # cp
    119      1   1 -0.100000     3.991160000    51.998400000    12.358800000   0   0   0 # cp
    120      1   1  0.000000     2.839900000    52.404600000    11.708800000   0   0   0 # cp
    121      1   2  0.100000     1.582773198    50.664500000    20.623800000   0   0   0 # h
    122      1   2  0.100000     1.070973198    54.198800000    18.380800000   0   0   0 # h
    123      1   2  0.100000     1.768473198    55.512900000    20.195600000   0   0   0 # h
    124      1   2  0.100000     2.335440000    51.956700000    22.556000000   0   0   0 # h
    125      1   2  0.100000    -1.354400000    53.204400000    17.247700000   1   0   0 # h
    126      1   2  0.100000    54.016500000    53.408100000    17.899800000   0   0   0 # h
    127      1   2  0.100000    54.527500000    50.345600000    20.796000000   0   0   0 # h
    128      1   2  0.100000    -0.812400000    50.084200000    20.198000000   1   0   0 # h
    129      1   2  0.100000     2.824320000    52.757600000    17.034000000   0   0   0 # h
    130      1   2  0.100000     3.205550000    53.513100000    14.754000000   0   0   0 # h
    131      1   2  0.100000    -0.421600000    51.538300000    13.625200000   1   0   0 # h
    132      1   2  0.100000    -0.744400000    50.801000000    15.772600000   1   0   0 # h
    133      1   2  0.100000     4.002680000    57.240700000    11.165300000   0   0   0 # h
    134      1   2  0.100000     3.361520000    54.923600000    10.785900000   0   0   0 # h
    135      1   2  0.100000     0.936573198    55.130200000    14.323400000   0   0   0 # h
    136      1   2  0.100000     1.470473236    57.455810555    14.538300000   0  -1   0 # h
    137      1   2  0.100000     0.423073198    51.069600000    11.252600000   0   0   0 # h
    138      1   2  0.100000    -1.814100000    50.719000000    10.554900000   1   0   0 # h
    139      1   2  0.100000    -2.685400000    54.836800000    11.371500000   1   0   0 # h
    140      1   2  0.100000    -0.507100000    55.166200000    12.141500000   1   0   0 # h
    141      1   2  0.100000     1.951473198    52.566000000     9.741140000   0   0   0 # h
    142      1   2  0.100000     3.729830000    51.418700000     8.604250000   0   0   0 # h
    143      1   2  0.100000     5.970360000    51.139800000    12.175500000   0   0   0 # h
    144      1   2  0.100000     4.220920000    52.182300000    13.398100000   0   0   0 # h
    145      1   1  0.000000    14.261500000    14.926000000    23.580700000   0   0   0 # cp
    146      1   1 -0.100000    13.625000000    15.572800000    22.538600000   0   0   0 # cp
    147      1   1 -0.100000    12.419200000    15.109500000    22.048900000   0   0   0 # cp
    148      1   1  0.000000    11.845100000    13.915500000    22.533800000   0   0   0 # cp
    149      1   1 -0.100000    12.501200000    13.311500000    23.582700000   0   0   0 # cp
    150      1   1 -0.100000    13.668800000    13.792700000    24.080400000   0   0   0 # cp
    151      1   2  0.100000    14.059200000    16.448500000    22.087300000   0   0   0 # h
    152      1   2  0.100000    11.975900000    15.679500000    21.245900000   0   0   0 # h
    153      1   2  0.100000    12.084600000    12.449700000    24.057700000   0   0   0 # h
    154      1   2  0.100000    14.098300000    13.346800000    24.964500000   0   0   0 # h
    155      1   1 -0.100000    11.599300000    10.954000000    21.498000000   0   0   0 # cp
    156      1   1  0.000000    10.472700000    11.730400000    21.687900000   0   0   0 # cp
    157      1   1 -0.100000     9.238240000    11.135200000    21.426900000   0   0   0 # cp
    158      1   1 -0.100000     9.159290000     9.865020000    20.919100000   0   0   0 # cp
    159      1   1  0.000000    10.285700000     9.106410000    20.756100000   0   0   0 # cp
    160      1   1 -0.100000    11.507100000     9.666850000    21.018100000   0   0   0 # cp
    161      1   3  0.000000    10.505500000    13.296500000    21.945700000   0   0   0 # c
    162      1   1  0.000000    10.240300000    13.793900000    20.472000000   0   0   0 # cp
    163      1   1 -0.100000     8.995040000    14.254500000    20.046400000   0   0   0 # cp
    164      1   1 -0.100000     8.797780000    14.526600000    18.718200000   0   0   0 # cp
    165      1   1  0.000000     9.773310000    14.279100000    17.773200000   0   0   0 # cp
    166      1   1 -0.100000    11.032200000    13.932900000    18.191500000   0   0   0 # cp
    167      1   1 -0.100000    11.271200000    13.683000000    19.520200000   0   0   0 # cp
    168      1   1 -0.100000     9.078470000    12.943300000    24.088600000   0   0   0 # cp
    169      1   1 -0.100000     8.339300000    13.385100000    25.125900000   0   0   0 # cp
    170      1   1  0.000000     8.047540000    14.725500000    25.309200000   0   0   0 # cp
    171      1   1 -0.100000     8.410050000    15.589800000    24.277300000   0   0   0 # cp
    172      1   1 -0.100000     9.153330000    15.144200000    23.192900000   0   0   0 # cp
    173      1   1  0.000000     9.472110000    13.803100000    23.060300000   0   0   0 # cp
    174      1   3  0.000000     7.242550000    15.191700000    26.585000000   0   0   0 # c
    175      1   1  0.000000     3.073780000    15.744400000    25.483200000   0   0   0 # cp
    176      1   1 -0.100000     3.674530000    14.533400000    25.316600000   0   0   0 # cp
    177      1   1 -0.100000     4.990920000    14.363400000    25.601900000   0   0   0 # cp
    178      1   1  0.000000     5.766240000    15.434300000    26.023000000   0   0   0 # cp
    179      1   1 -0.100000     5.206970000    16.700800000    25.904500000   0   0   0 # cp
    180      1   1 -0.100000     3.865610000    16.850400000    25.672600000   0   0   0 # cp
    181      1   1  0.000000     7.777690000    16.463800000    27.396100000   0   0   0 # cp
    182      1   1 -0.100000     8.972680000    17.092500000    27.084400000   0   0   0 # cp
    183      1   1 -0.100000     9.330950000    18.253600000    27.710600000   0   0   0 # cp
    184      1   1  0.000000     8.499990000    18.849500000    28.615200000   0   0   0 # cp
    185      1   1 -0.100000     7.391260000    18.145800000    29.035300000   0   0   0 # cp
    186      1   1 -0.100000     7.049720000    16.923700000    28.482900000   0   0   0 # cp
    187      1   1 -0.100000     6.156350000    13.636200000    28.473800000   0   0   0 # cp
    188      1   1 -0.100000     6.593341928    12.805687393     0.218704370   0   0   0 # cp
    189      1   1  0.000000     7.849381928    12.423287393     0.639504370   0   0   0 # cp
    190      1   1 -0.100000     8.658270017    12.837200003    29.287098367   0   0  -1 # cp
    191      1   1 -0.100000     8.515780000    13.724200000    28.275700000   0   0   0 # cp
    192      1   1  0.000000     7.274280000    14.102000000    27.784300000   0   0   0 # cp
    193      1   2  0.100000    12.589200000    11.363400000    21.588500000   0   0   0 # h
    194      1   2  0.100000     8.334640000    11.697100000    21.500200000   0   0   0 # h
    195      1   2  0.100000     8.181810000     9.471300000    20.718100000   0   0   0 # h
    196      1   2  0.100000    12.453900000     9.166110000    20.796400000   0   0   0 # h
    197      1   2  0.100000     8.180320000    14.425100000    20.745500000   0   0   0 # h
    198      1   2  0.100000     7.841970000    14.899800000    18.421200000   0   0   0 # h
    199      1   2  0.100000    11.844700000    13.788900000    17.503600000   0   0   0 # h
    200      1   2  0.100000    12.242800000    13.364000000    19.775900000   0   0   0 # h
    201      1   2  0.100000     9.348380000    11.901900000    24.114100000   0   0   0 # h
    202      1   2  0.100000     8.074260000    12.624500000    25.840800000   0   0   0 # h
    203      1   2  0.100000     8.169400000    16.633900000    24.376300000   0   0   0 # h
    204      1   2  0.100000     9.509610000    15.834900000    22.439000000   0   0   0 # h
    205      1   2  0.100000     3.057670000    13.654400000    25.099400000   0   0   0 # h
    206      1   2  0.100000     5.402340000    13.359100000    25.578000000   0   0   0 # h
    207      1   2  0.100000     5.768670000    17.629500000    26.082400000   0   0   0 # h
    208      1   2  0.100000     3.474930000    17.837800000    25.770900000   0   0   0 # h
    209      1   2  0.100000     9.636810000    16.735800000    26.310100000   0   0   0 # h
    210      1   2  0.100000    10.230400000    18.726800000    27.435500000   0   0   0 # h
    211      1   2  0.100000     7.012981928    18.620987393     0.475604370   0   0   0 # h
    212      1   2  0.100000     6.139700000    16.428400000    28.756100000   0   0   0 # h
    213      1   2  0.100000     5.167120000    14.013300000    28.238900000   0   0   0 # h
    214      1   2  0.100000     5.711871928    12.499087393     0.726504370   0   0   0 # h
    215      1   2  0.100000     9.934421928    12.569287393     0.334504370   0   0   0 # h
    216      1   2  0.100000     9.424220000    14.135400000    27.810100000   0   0   0 # h
    217      1   1  0.000000    27.481100000    17.312400000    18.453400000   0   0   0 # cp
    218      1   1 -0.100000    27.554600000    18.667700000    18.402800000   0   0   0 # cp
    219      1   1 -0.100000    26.642800000    19.411900000    19.121400000   0   0   0 # cp
    220      1   1  0.000000    25.600800000    18.822600000    19.829300000   0   0   0 # cp
    221      1   1 -0.100000    25.619800000    17.436600000    19.950500000   0   0   0 # cp
    222      1   1 -0.100000    26.570800000    16.710800000    19.306100000   0   0   0 # cp
    223      1   2  0.100000    28.294500000    19.192200000    17.783000000   0   0   0 # h
    224      1   2  0.100000    26.777000000    20.473200000    19.046900000   0   0   0 # h
    225      1   2  0.100000    24.866500000    16.879900000    20.467400000   0   0   0 # h
    226      1   2  0.100000    26.590300000    15.633500000    19.410500000   0   0   0 # h
    227      1   1 -0.100000    22.778800000    18.131500000    18.695000000   0   0   0 # cp
    228      1   1  0.000000    23.479600000    19.350100000    18.806300000   0   0   0 # cp
    229      1   1 -0.100000    23.556600000    20.097800000    17.636000000   0   0   0 # cp
    230      1   1 -0.100000    23.106800000    19.604700000    16.422500000   0   0   0 # cp
    231      1   1  0.000000    22.527500000    18.385300000    16.326200000   0   0   0 # cp
    232      1   1 -0.100000    22.312200000    17.656700000    17.495300000   0   0   0 # cp
    233      1   3  0.000000    24.282800000    19.679900000    20.152600000   0   0   0 # c
    234      1   1  0.000000    24.463800000    21.262500000    20.541100000   0   0   0 # cp
    235      1   1 -0.100000    24.169200000    21.796300000    21.792400000   0   0   0 # cp
    236      1   1 -0.100000    24.410800000    23.125800000    22.093200000   0   0   0 # cp
    237      1   1  0.000000    25.011700000    23.928400000    21.184500000   0   0   0 # cp
    238      1   1 -0.100000    25.350100000    23.461000000    19.949500000   0   0   0 # cp
    239      1   1 -0.100000    25.057300000    22.162500000    19.650600000   0   0   0 # cp
    240      1   1 -0.100000    22.127300000    19.326500000    21.539200000   0   0   0 # cp
    241      1   1 -0.100000    21.432000000    18.979900000    22.669800000   0   0   0 # cp
    242      1   1  0.000000    22.093000000    18.466800000    23.781600000   0   0   0 # cp
    243      1   1 -0.100000    23.471800000    18.205600000    23.644600000   0   0   0 # cp
    244      1   1 -0.100000    24.132000000    18.539300000    22.494800000   0   0   0 # cp
    245      1   1  0.000000    23.481200000    19.113800000    21.412800000   0   0   0 # cp
    246      1   3  0.000000    21.374700000    18.317800000    25.243900000   0   0   0 # c
    247      1   1  0.000000    17.060500000    17.254800000    25.142300000   0   0   0 # cp
    248      1   1 -0.100000    17.891000000    16.561200000    25.970400000   0   0   0 # cp
    249      1   1 -0.100000    19.209500000    16.875800000    26.012800000   0   0   0 # cp
    250      1   1  0.000000    19.756600000    17.947700000    25.299200000   0   0   0 # cp
    251      1   1 -0.100000    18.844900000    18.705900000    24.601900000   0   0   0 # cp
    252      1   1 -0.100000    17.522900000    18.337900000    24.475500000   0   0   0 # cp
    253      1   1  0.000000    21.798400000    19.690000000    25.985000000   0   0   0 # cp
    254      1   1 -0.100000    23.109300000    19.984200000    26.279200000   0   0   0 # cp
    255      1   1 -0.100000    23.502100000    21.250200000    26.684300000   0   0   0 # cp
    256      1   1  0.000000    22.556300000    22.236900000    26.794600000   0   0   0 # cp
    257      1   1 -0.100000    21.231600000    21.944300000    26.618900000   0   0   0 # cp
    258      1   1 -0.100000    20.858900000    20.678500000    26.220200000   0   0   0 # cp
    259      1   1 -0.100000    22.441500000    16.956700000    27.258100000   0   0   0 # cp
    260      1   1 -0.100000    22.969700000    15.825600000    27.817900000   0   0   0 # cp
    261      1   1  0.000000    23.100000000    14.690200000    27.071700000   0   0   0 # cp
    262      1   1 -0.100000    22.692900000    14.690200000    25.759800000   0   0   0 # cp
    263      1   1 -0.100000    22.151100000    15.829100000    25.208500000   0   0   0 # cp
    264      1   1  0.000000    22.052500000    17.015000000    25.921800000   0   0   0 # cp
    265      1   2  0.100000    22.691900000    17.440500000    19.499800000   0   0   0 # h
    266      1   2  0.100000    24.082000000    20.998000000    17.600000000   0   0   0 # h
    267      1   2  0.100000    23.337800000    20.158900000    15.510300000   0   0   0 # h
    268      1   2  0.100000    21.912400000    16.630800000    17.471600000   0   0   0 # h
    269      1   2  0.100000    23.670200000    21.241800000    22.594500000   0   0   0 # h
    270      1   2  0.100000    24.128800000    23.511700000    23.053600000   0   0   0 # h
    271      1   2  0.100000    25.926600000    24.080500000    19.248800000   0   0   0 # h
    272      1   2  0.100000    25.472100000    21.880500000    18.694500000   0   0   0 # h
    273      1   2  0.100000    21.618700000    19.884400000    20.753100000   0   0   0 # h
    274      1   2  0.100000    20.387400000    19.242500000    22.605500000   0   0   0 # h
    275      1   2  0.100000    24.048200000    17.819800000    24.479000000   0   0   0 # h
    276      1   2  0.100000    25.202300000    18.402800000    22.447200000   0   0   0 # h
    277      1   2  0.100000    17.488600000    15.730700000    26.532800000   0   0   0 # h
    278      1   2  0.100000    19.778800000    16.308900000    26.703400000   0   0   0 # h
    279      1   2  0.100000    19.157300000    19.622100000    24.149900000   0   0   0 # h
    280      1   2  0.100000    16.859200000    18.923400000    23.837900000   0   0   0 # h
    281      1   2  0.100000    23.837800000    19.249200000    26.142600000   0   0   0 # h
    282      1   2  0.100000    24.559600000    21.426900000    26.905500000   0   0   0 # h
    283      1   2  0.100000    20.499900000    22.725900000    26.778800000   0   0   0 # h
    284      1   2  0.100000    19.775700000    20.514000000    26.180800000   0   0   0 # h
    285      1   2  0.100000    22.379900000    17.841000000    27.898700000   0   0   0 # h
    286      1   2  0.100000    23.319900000    15.846100000    28.829300000   0   0   0 # h
    287      1   2  0.100000    22.770800000    13.799100000    25.106300000   0   0   0 # h
    288      1   2  0.100000    21.816700000    15.800500000    24.160100000   0   0   0 # h
    289      1   1  0.000000    -0.817500000    44.836000000     5.746330000   1   0   0 # cp
    290      1   1 -0.100000    -0.340400000    46.104700000     5.508900000   1   0   0 # cp
    291      1   1 -0.100000    -1.218500000    47.162400000     5.416070000   1   0   0 # cp
    292      1   1  0.000000    -2.579400000    46.962400000     5.542710000   1   0   0 # cp
    293      1   1 -0.100000    54.599200000    45.653300000     5.703510000   0   0   0 # cp
    294      1   1 -0.100000    -2.143700000    44.615000000     5.876960000   1   0   0 # cp
    295      1   2  0.100000     0.751873198    46.301800000     5.478820000   0   0   0 # h
    296      1   2  0.100000    -0.792600000    48.153400000     5.196770000   1   0   0 # h
    297      1   2  0.100000    53.549000000    45.438000000     5.777410000   0   0   0 # h
    298      1   2  0.100000    -2.511100000    43.589100000     6.010270000   1   0   0 # h
    299      1   1 -0.100000    52.632900000    46.971000000     3.434950000   0   0   0 # cp