LAMMPS data file. msi2lmp v3.9.11 / 6 Sep 2024 / CGCMM for wkp_0_opt

   2160 atoms
   2376 bonds
   4176 angles
   6696 dihedrals
   1008 impropers

   4 atom types
   6 bond types
   9 angle types
  13 dihedral types
   3 improper types

    -8.440848486    32.216651514 xlo xhi
     0.280338791    35.174815241 ylo yhi
    -0.194561953    55.668972764 zlo zhi
   -20.249595667     1.642797560    -0.336886926 xy xz yz

Masses

   1  12.011150 # cp
   2   1.007970 # h
   3  12.011150 # c
   4  12.011150 # c2

Pair Coeffs # lj/cut/coul/long

   1   0.1479999981   3.6170487995 # cp
   2   0.0380000011   2.4499714540 # h
   3   0.1599999990   3.4745050026 # c
   4   0.0389999952   3.8754094636 # c2

Bond Coeffs # harmonic

   1   480.0000     1.3400 # cp-cp
   2   283.0924     1.5100 # cp-c2
   3   363.4164     1.0800 # cp-h
   4   283.0924     1.5100 # cp-c
   5   322.7158     1.5260 # c2-c2
   6   340.6175     1.1050 # h-c2

Angle Coeffs # harmonic

   1    90.0000   120.0000 # cp-cp-cp
   2    44.2000   120.0000 # cp-cp-c2
   3    37.0000   120.0000 # cp-cp-h
   4    44.2000   120.0000 # cp-cp-c
   5    46.6000   110.5000 # cp-c-cp
   6    46.6000   110.5000 # cp-c2-c2
   7    44.4000   110.0000 # cp-c2-h
   8    44.4000   110.0000 # h-c2-c2
   9    39.5000   106.4000 # h-c2-h

Dihedral Coeffs # harmonic

  1     3.0000  -1   2 # cp-cp-cp-cp
  2     3.0000  -1   2 # cp-cp-cp-h
  3     3.0000  -1   2 # cp-cp-cp-c2
  4     3.0000  -1   2 # h-cp-cp-c2
  5     0.0000   1   2 # cp-cp-c2-c2
  6     0.0000   1   2 # cp-cp-c2-h
  7     3.0000  -1   2 # h-cp-cp-h
  8     3.0000  -1   2 # cp-cp-cp-c
  9     3.0000  -1   2 # h-cp-cp-c
 10     0.6750   1   4 # cp-cp-c-cp
 11     0.1581   1   3 # cp-c2-c2-cp
 12     0.1581   1   3 # cp-c2-c2-h
 13     0.1581   1   3 # h-c2-c2-h

Improper Coeffs # cvff

    1     0.3700  -1   2 # cp-cp-cp-c2
    2     0.3700  -1   2 # cp-cp-cp-h
    3     0.3700  -1   2 # cp-cp-cp-c

Atoms # full

      1      1   1  0.000000    -5.388780000    28.063200000    13.994500000   0   0   0 # cp
      2      1   1 -0.100000    -6.758720000    28.178500000    14.159900000   0   0   0 # cp
      3      1   1 -0.100000    -7.408220000    27.477400000    15.160000000   0   0   0 # cp
      4      1   1  0.000000    -6.681190000    26.634900000    16.023700000   0   0   0 # cp
      5      1   1 -0.100000    -5.294730000    26.638700000    15.885600000   0   0   0 # cp
      6      1   1 -0.100000    -4.653810000    27.277200000    14.843300000   0   0   0 # cp
      7      1   2  0.100000    -7.352370000    28.772500000    13.489100000   0   0   0 # h
      8      1   2  0.100000    -8.484870000    27.581800000    15.225600000   0   0   0 # h
      9      1   2  0.100000    -4.688330000    26.096300000    16.607200000   0   0   0 # h
     10      1   2  0.100000    -3.591780000    27.211100000    14.784500000   0   0   0 # h
     11      1   1 -0.100000    -6.384900000    23.572000000    16.117400000   0   0   0 # cp
     12      1   1  0.000000    -7.098630000    24.184600000    17.144900000   0   0   0 # cp
     13      1   1 -0.100000    -7.488110000    23.357900000    18.210100000   0   0   0 # cp
     14      1   1 -0.100000    -7.102360000    22.025200000    18.261100000   0   0   0 # cp
     15      1   1  0.000000    -6.324650000    21.485400000    17.270600000   0   0   0 # cp
     16      1   1 -0.100000    -5.998230000    22.257800000    16.180100000   0   0   0 # cp
     17      1   3  0.000000    -7.411490000    25.778800000    17.200100000   0   0   0 # c
     18      1   1  0.000000    -9.018560000    25.737500000    17.101000000   0   0   0 # cp
     19      1   1 -0.100000    -9.827430000    25.826900000    18.245000000   0   0   0 # cp
     20      1   1 -0.100000   -11.103300000    25.379900000    18.267500000   0   0   0 # cp
     21      1   1  0.000000   -11.675000000    24.956700000    17.112300000   0   0   0 # cp
     22      1   1 -0.100000   -10.969300000    24.969300000    15.927000000   0   0   0 # cp
     23      1   1 -0.100000    -9.638750000    25.308100000    15.926200000   0   0   0 # cp
     24      1   1 -0.100000    -6.082980000    25.937200000    19.438200000   0   0   0 # cp
     25      1   1 -0.100000    -5.917460000    26.497300000    20.684000000   0   0   0 # cp
     26      1   1  0.000000    -6.328960000    27.801100000    20.973100000   0   0   0 # cp
     27      1   1 -0.100000    -7.040540000    28.449300000    19.984400000   0   0   0 # cp
     28      1   1 -0.100000    -7.316140000    27.851600000    18.766400000   0   0   0 # cp
     29      1   1  0.000000    -6.895400000    26.539100000    18.511600000   0   0   0 # cp
     30      1   3  0.000000    -6.044820000    28.469600000    22.400900000   0   0   0 # c
     31      1   1  0.000000    -9.414430000    26.769100000    24.577000000   0   0   0 # cp
     32      1   1 -0.100000    -8.175200000    26.175600000    24.682600000   0   0   0 # cp
     33      1   1 -0.100000    -7.071770000    26.748700000    24.066900000   0   0   0 # cp
     34      1   1  0.000000    -7.218550000    27.889700000    23.291800000   0   0   0 # cp
     35      1   1 -0.100000    -8.488060000    28.436500000    23.195300000   0   0   0 # cp
     36      1   1 -0.100000    -9.547160000    27.917500000    23.849500000   0   0   0 # cp
     37      1   1  0.000000    -5.898950000    30.021600000    22.174600000   0   0   0 # cp
     38      1   1 -0.100000    -4.954120000    30.518400000    21.265900000   0   0   0 # cp
     39      1   1 -0.100000    -4.739160000    31.848100000    21.072800000   0   0   0 # cp
     40      1   1  0.000000    -5.378940000    32.751900000    21.854800000   0   0   0 # cp
     41      1   1 -0.100000    -6.252990000    32.295100000    22.823100000   0   0   0 # cp
     42      1   1 -0.100000    -6.511620000    30.958000000    22.980300000   0   0   0 # cp
     43      1   1 -0.100000    -4.373520000    28.706900000    24.359400000   0   0   0 # cp
     44      1   1 -0.100000    -3.214490000    28.449000000    25.051200000   0   0   0 # cp
     45      1   1  0.000000    -2.300330000    27.541300000    24.554000000   0   0   0 # cp
     46      1   1 -0.100000    -2.459110000    27.085500000    23.253200000   0   0   0 # cp
     47      1   1 -0.100000    -3.554430000    27.508100000    22.511100000   0   0   0 # cp
     48      1   1  0.000000    -4.606750000    28.205300000    23.087800000   0   0   0 # cp
     49      1   2  0.100000    -6.055400000    24.167200000    15.276000000   0   0   0 # h
     50      1   2  0.100000    -8.081550000    23.744900000    19.025800000   0   0   0 # h
     51      1   2  0.100000    -7.336800000    21.395200000    19.092500000   0   0   0 # h
     52      1   2  0.100000    -5.446300000    21.844000000    15.325700000   0   0   0 # h
     53      1   2  0.100000    -9.410530000    26.165700000    19.158900000   0   0   0 # h
     54      1   2  0.100000   -11.650400000    25.325200000    19.221600000   0   0   0 # h
     55      1   2  0.100000   -11.430500000    24.532900000    15.059800000   0   0   0 # h
     56      1   2  0.100000    -9.051050000    25.122800000    15.034700000   0   0   0 # h
     57      1   2  0.100000    -5.620300000    24.974800000    19.277900000   0   0   0 # h
     58      1   2  0.100000    -5.453390000    25.877600000    21.440300000   0   0   0 # h
     59      1   2  0.100000    -7.413930000    29.468300000    20.140400000   0   0   0 # h
     60      1   2  0.100000    -7.872780000    28.406300000    18.035000000   0   0   0 # h
     61      1   2  0.100000    -8.079790000    25.217000000    25.192100000   0   0   0 # h
     62      1   2  0.100000    -6.171360000    26.191300000    24.163100000   0   0   0 # h
     63      1   2  0.100000    -8.694570000    29.240900000    22.481600000   0   0   0 # h
     64      1   2  0.100000   -10.525300000    28.344200000    23.644600000   0   0   0 # h
     65      1   2  0.100000    -4.394490000    29.824800000    20.663100000   0   0   0 # h
     66      1   2  0.100000    -4.023260000    32.187500000    20.348100000   0   0   0 # h
     67      1   2  0.100000    -6.740740000    32.995500000    23.507700000   0   0   0 # h
     68      1   2  0.100000    -7.129790000    30.667100000    23.826000000   0   0   0 # h
     69      1   2  0.100000    -5.105690000    29.327100000    24.876100000   0   0   0 # h
     70      1   2  0.100000    -3.117630000    28.779000000    26.054300000   0   0   0 # h
     71      1   2  0.100000    -1.719080000    26.409200000    22.860900000   0   0   0 # h
     72      1   2  0.100000    -3.608580000    27.179900000    21.497400000   0   0   0 # h
     73      1   1  0.000000   -19.840773792    21.451800000     9.643140000   1   0   0 # cp
     74      1   1 -0.100000   -20.568073792    22.553100000    10.004700000   1   0   0 # cp
     75      1   1 -0.100000    19.277700000    22.517800000    11.095000000   0   0   0 # cp
     76      1   1  0.000000    19.074800000    21.344600000    11.814000000   0   0   0 # cp
     77      1   1 -0.100000    19.767300000    20.212600000    11.392200000   0   0   0 # cp
     78      1   1 -0.100000    20.620800000    20.276500000    10.325600000   0   0   0 # cp
     79      1   2  0.100000   -20.446273792    23.473200000     9.485820000   1   0   0 # h
     80      1   2  0.100000    18.788000000    23.423200000    11.445900000   0   0   0 # h
     81      1   2  0.100000    19.705300000    19.284000000    11.919600000   0   0   0 # h
     82      1   2  0.100000    21.101400000    19.355300000    10.053400000   0   0   0 # h
     83      1   1 -0.100000    16.647100000    19.501600000    11.864600000   0   0   0 # cp
     84      1   1  0.000000    17.109800000    19.994100000    13.065600000   0   0   0 # cp
     85      1   1 -0.100000    16.662700000    19.348100000    14.218800000   0   0   0 # cp
     86      1   1 -0.100000    15.914200000    18.215800000    14.120500000   0   0   0 # cp
     87      1   1  0.000000    15.565800000    17.689700000    12.910400000   0   0   0 # cp
     88      1   1 -0.100000    15.863400000    18.389200000    11.772400000   0   0   0 # cp
     89      1   3  0.000000    18.082400000    21.270800000    13.100100000   0   0   0 # c
     90      1   1  0.000000    16.935700000    22.363600000    13.318400000   0   0   0 # cp
     91      1   1 -0.100000    16.512500000    22.754500000    14.586800000   0   0   0 # cp
     92      1   1 -0.100000    15.572400000    23.748400000    14.743500000   0   0   0 # cp
     93      1   1  0.000000    14.912600000    24.258100000    13.661900000   0   0   0 # cp
     94      1   1 -0.100000    15.250500000    23.813800000    12.424900000   0   0   0 # cp
     95      1   1 -0.100000    16.223600000    22.860000000    12.269900000   0   0   0 # cp
     96      1   1 -0.100000    19.607700000    20.255700000    15.012700000   0   0   0 # cp
     97      1   1 -0.100000    20.384300000    20.424000000    16.135500000   0   0   0 # cp
     98      1   1  0.000000   -19.836673792    21.680700000    16.506800000   1   0   0 # cp
     99      1   1 -0.100000   -20.157573792    22.747900000    15.675100000   1   0   0 # cp
    100      1   1 -0.100000   -20.942973792    22.563200000    14.564700000   1   0   0 # cp
    101      1   1  0.000000    19.191800000    21.325100000    14.246600000   0   0   0 # cp
    102      1   3  0.000000   -19.080873792    21.961600000    17.870700000   1   0   0 # c
    103      1   1  0.000000    18.200200000    24.003000000    19.756100000   0   0   0 # cp
    104      1   1 -0.100000    18.185700000    22.651500000    19.610800000   0   0   0 # cp
    105      1   1 -0.100000    19.255200000    22.030100000    19.014500000   0   0   0 # cp
    106      1   1  0.000000   -20.252373792    22.721100000    18.637400000   1   0   0 # cp
    107      1   1 -0.100000   -20.279173792    24.104900000    18.826200000   1   0   0 # cp
    108      1   1 -0.100000   -21.367773792    24.732400000    19.378400000   1   0   0 # cp
    109      1   1  0.000000   -17.746273792    22.811400000    17.719000000   1   0   0 # cp
    110      1   1 -0.100000   -17.122173792    23.019300000    16.509100000   1   0   0 # cp
    111      1   1 -0.100000   -16.034673792    23.838600000    16.348800000   1   0   0 # cp
    112      1   1  0.000000   -15.485773792    24.426700000    17.494700000   1   0   0 # cp
    113      1   1 -0.100000   -16.017573792    24.172500000    18.725800000   1   0   0 # cp
    114      1   1 -0.100000   -17.159873792    23.406700000    18.823300000   1   0   0 # cp
    115      1   1 -0.100000   -17.628273792    19.771100000    17.970300000   1   0   0 # cp
    116      1   1 -0.100000   -17.128173792    18.692500000    18.649400000   1   0   0 # cp
    117      1   1  0.000000   -17.474373792    18.409300000    19.962300000   1   0   0 # cp
    118      1   1 -0.100000   -18.296973792    19.305300000    20.577600000   1   0   0 # cp
    119      1   1 -0.100000   -18.758373792    20.438700000    19.953700000   1   0   0 # cp
    120      1   1  0.000000   -18.491173792    20.670000000    18.616400000   1   0   0 # cp
    121      1   2  0.100000    16.844900000    20.032300000    10.936600000   0   0   0 # h
    122      1   2  0.100000    16.985000000    19.697800000    15.200000000   0   0   0 # h
    123      1   2  0.100000    15.682800000    17.683500000    15.055000000   0   0   0 # h
    124      1   2  0.100000    15.526600000    18.004000000    10.820100000   0   0   0 # h
    125      1   2  0.100000    17.005300000    22.389200000    15.484700000   0   0   0 # h
    126      1   2  0.100000    15.372300000    24.149300000    15.748800000   0   0   0 # h
    127      1   2  0.100000    14.721100000    24.144600000    11.551900000   0   0   0 # h
    128      1   2  0.100000    16.405700000    22.546500000    11.256000000   0   0   0 # h
    129      1   2  0.100000    19.259100000    19.266700000    14.745200000   0   0   0 # h
    130      1   2  0.100000    20.583600000    19.518000000    16.700800000   0   0   0 # h
    131      1   2  0.100000   -19.864973792    23.746900000    15.927700000   1   0   0 # h
    132      1   2  0.100000   -21.206473792    23.405800000    13.967300000   1   0   0 # h
    133      1   2  0.100000    17.302500000    22.073700000    19.823100000   0   0   0 # h
    134      1   2  0.100000    19.155100000    20.991200000    18.731300000   0   0   0 # h
    135      1   2  0.100000   -19.477573792    24.733100000    18.449000000   1   0   0 # h
    136      1   2  0.100000   -21.320973792    25.821200000    19.499100000   1   0   0 # h
    137      1   2  0.100000   -17.500973792    22.562700000    15.610000000   1   0   0 # h
    138      1   2  0.100000   -15.595173792    23.967700000    15.360500000   1   0   0 # h
    139      1   2  0.100000   -15.549173792    24.514400000    19.630900000   1   0   0 # h
    140      1   2  0.100000   -17.507373792    23.172900000    19.810700000   1   0   0 # h
    141      1   2  0.100000   -17.316373792    19.953500000    16.957000000   1   0   0 # h
    142      1   2  0.100000   -16.396773792    18.084500000    18.118600000   1   0   0 # h
    143      1   2  0.100000   -18.545873792    19.140200000    21.616600000   1   0   0 # h
    144      1   2  0.100000   -19.315273792    21.090900000    20.589400000   1   0   0 # h
    145      1   1  0.000000     9.545380000    29.496500000     4.551460000   0   0   0 # cp
    146      1   1 -0.100000     9.700570000    30.862400000     4.547920000   0   0   0 # cp
    147      1   1 -0.100000     9.388660000    31.603200000     5.655860000   0   0   0 # cp
    148      1   1  0.000000     8.894050000    31.015000000     6.799630000   0   0   0 # cp
    149      1   1 -0.100000     8.581040000    29.658600000     6.734190000   0   0   0 # cp
    150      1   1 -0.100000     8.917750000    28.912800000     5.622170000   0   0   0 # cp
    151      1   2  0.100000    10.089400000    31.389100000     3.685530000   0   0   0 # h
    152      1   2  0.100000     9.559430000    32.678300000     5.590210000   0   0   0 # h
    153      1   2  0.100000     8.159710000    29.124700000     7.542440000   0   0   0 # h
    154      1   2  0.100000     8.682570000    27.863100000     5.620980000   0   0   0 # h
    155      1   1 -0.100000     6.073250000    31.714100000     8.340880000   0   0   0 # cp
    156      1   1  0.000000     7.189390000    32.411900000     7.863650000   0   0   0 # cp
    157      1   1 -0.100000     6.942110000    33.569500000     7.121000000   0   0   0 # cp
    158      1   1 -0.100000     5.656550000    34.032000000     6.933400000   0   0   0 # cp
    159      1   1  0.000000     4.577660000    33.344400000     7.439610000   0   0   0 # cp
    160      1   1 -0.100000     4.808360000    32.199500000     8.148610000   0   0   0 # cp
    161      1   3  0.000000     8.683250000    31.886500000     8.096760000   0   0   0 # c
    162      1   1  0.000000     9.867070000    32.963800000     8.293230000   0   0   0 # cp
    163      1   1 -0.100000     9.670850000    34.185000000     8.889420000   0   0   0 # cp
    164      1   1 -0.100000    10.709393304    34.973111540     9.340400000   0  -1   0 # cp
    165      1   1  0.000000    11.998800000    34.609000000     9.051760000   0   0   0 # cp
    166      1   1 -0.100000    12.237800000    33.447200000     8.348550000   0   0   0 # cp
    167      1   1 -0.100000    11.188000000    32.622600000     8.030890000   0   0   0 # cp
    168      1   1 -0.100000     8.227320000    31.878000000    10.624900000   0   0   0 # cp
    169      1   1 -0.100000     8.505950000    31.503100000    11.893400000   0   0   0 # cp
    170      1   1  0.000000     9.436890000    30.523500000    12.149600000   0   0   0 # cp
    171      1   1 -0.100000     9.921910000    29.793900000    11.074300000   0   0   0 # cp
    172      1   1 -0.100000     9.617730000    30.146200000     9.807850000   0   0   0 # cp
    173      1   1  0.000000     8.787550000    31.216100000     9.535000000   0   0   0 # cp
    174      1   3  0.000000    10.076100000    30.473300000    13.610500000   0   0   0 # c
    175      1   1  0.000000    11.620300000    34.467500000    14.483100000   0   0   0 # cp
    176      1   1 -0.100000    11.378000000    33.582600000    15.495500000   0   0   0 # cp
    177      1   1 -0.100000    10.952500000    32.296400000    15.207500000   0   0   0 # cp
    178      1   1  0.000000    10.740700000    31.883400000    13.906700000   0   0   0 # cp
    179      1   1 -0.100000    11.161800000    32.761200000    12.901900000   0   0   0 # cp
    180      1   1 -0.100000    11.564700000    34.028600000    13.192100000   0   0   0 # cp
    181      1   1  0.000000    11.262300000    29.458300000    13.881200000   0   0   0 # cp
    182      1   1 -0.100000    11.279400000    28.692800000    15.042800000   0   0   0 # cp
    183      1   1 -0.100000    12.249000000    27.786800000    15.265400000   0   0   0 # cp
    184      1   1  0.000000    13.287700000    27.665300000    14.394100000   0   0   0 # cp
    185      1   1 -0.100000    13.356800000    28.498800000    13.292500000   0   0   0 # cp
    186      1   1 -0.100000    12.375600000    29.395400000    13.056800000   0   0   0 # cp
    187      1   1 -0.100000     8.154670000    28.785500000    14.097600000   0   0   0 # cp
    188      1   1 -0.100000     7.119840000    28.263100000    14.833200000   0   0   0 # cp
    189      1   1  0.000000     6.616300000    28.963200000    15.893700000   0   0   0 # cp
    190      1   1 -0.100000     7.163160000    30.215500000    16.175800000   0   0   0 # cp
    191      1   1 -0.100000     8.178110000    30.721100000    15.434900000   0   0   0 # cp
    192      1   1  0.000000     8.744750000    30.001500000    14.406200000   0   0   0 # cp
    193      1   2  0.100000     6.221390000    30.742300000     8.813560000   0   0   0 # h
    194      1   2  0.100000     7.737770000    34.106900000     6.681380000   0   0   0 # h
    195      1   2  0.100000     5.483243304    34.899311540     6.302390000   0  -1   0 # h
    196      1   2  0.100000     3.979040000    31.656600000     8.548630000   0   0   0 # h
    197      1   2  0.100000     8.674040000    34.488200000     9.111920000   0   0   0 # h
    198      1   2  0.100000    30.758800000     0.983424000     9.894270000   0   0   0 # h
    199      1   2  0.100000    13.281526208    33.218800000     8.129930000   0   0   0 # h
    200      1   2  0.100000    11.387800000    31.636900000     7.641570000   0   0   0 # h
    201      1   2  0.100000     7.617030000    32.741400000    10.493600000   0   0   0 # h
    202      1   2  0.100000     8.095700000    32.095300000    12.678300000   0   0   0 # h
    203      1   2  0.100000    10.616000000    28.967800000    11.240300000   0   0   0 # h
    204      1   2  0.100000    10.046000000    29.600100000     8.995560000   0   0   0 # h
    205      1   2  0.100000    11.495900000    33.906300000    16.524600000   0   0   0 # h
    206      1   2  0.100000    10.715100000    31.634900000    16.037700000   0   0   0 # h
    207      1   2  0.100000    11.138100000    32.522100000    11.861200000   0   0   0 # h
    208      1   2  0.100000    11.778400000    34.703400000    12.396000000   0   0   0 # h
    209      1   2  0.100000    10.534000000    28.857500000    15.788800000   0   0   0 # h
    210      1   2  0.100000    12.179500000    27.195700000    16.154500000   0   0   0 # h
    211      1   2  0.100000    14.151500000    28.384900000    12.568400000   0   0   0 # h
    212      1   2  0.100000    12.464300000    30.044500000    12.189300000   0   0   0 # h
    213      1   2  0.100000     8.592890000    28.136900000    13.337100000   0   0   0 # h
    214      1   2  0.100000     6.741000000    27.315000000    14.503600000   0   0   0 # h
    215      1   2  0.100000     6.787710000    30.792900000    17.033400000   0   0   0 # h
    216      1   2  0.100000     8.477780000    31.702500000    15.734800000   0   0   0 # h
    217      1   1  0.000000    10.414200000    28.144100000     1.017390000   0   0   0 # cp
    218      1   1 -0.100000    11.678101795    28.441943345     0.547352187   0   0   0 # cp
    219      1   1 -0.100000    13.009900000    27.572000000    27.417400000   0   0   0 # cp
    220      1   1  0.000000    12.357500000    26.486700000    26.874700000   0   0   0 # cp
    221      1   1 -0.100000    11.092900000    26.218300000    27.370300000   0   0   0 # cp
    222      1   1 -0.100000     9.702801795    27.125043345     0.440652187   0   0   0 # cp
    223      1   2  0.100000    12.276200000    29.249400000     0.945785000   0   0   0 # h
    224      1   2  0.100000    13.992700000    27.858000000    27.060100000   0   0   0 # h
    225      1   2  0.100000    10.515300000    25.427800000    26.976500000   0   0   0 # h
    226      1   2  0.100000     8.700140000    26.879600000     0.798326000   0   0   0 # h
    227      1   1 -0.100000    12.712000000    23.484300000    27.097500000   0   0   0 # cp
    228      1   1  0.000000    12.745900000    24.085500000    25.834000000   0   0   0 # cp
    229      1   1 -0.100000    12.659200000    23.232900000    24.724600000   0   0   0 # cp
    230      1   1 -0.100000    12.405100000    21.911400000    24.890900000   0   0   0 # cp
    231      1   1  0.000000    12.249800000    21.367100000    26.156000000   0   0   0 # cp
    232      1   1 -0.100000    12.465500000    22.169400000    27.253000000   0   0   0 # cp
    233      1   3  0.000000    12.962100000    25.634800000    25.658000000   0   0   0 # c
    234      1   1  0.000000    14.522700000    25.685600000    25.418100000   0   0   0 # cp
    235      1   1 -0.100000    15.112100000    25.712300000    24.133300000   0   0   0 # cp
    236      1   1 -0.100000    16.475900000    25.689500000    23.953600000   0   0   0 # cp
    237      1   1  0.000000    17.289700000    25.551700000    25.056100000   0   0   0 # cp
    238      1   1 -0.100000    16.753200000    25.574700000    26.324300000   0   0   0 # cp
    239      1   1 -0.100000    15.402200000    25.645300000    26.495500000   0   0   0 # cp
    240      1   1 -0.100000    11.101700000    25.789000000    23.779800000   0   0   0 # cp
    241      1   1 -0.100000    10.720400000    26.270200000    22.534300000   0   0   0 # cp
    242      1   1  0.000000    11.235700000    27.436900000    22.029900000   0   0   0 # cp
    243      1   1 -0.100000    12.111900000    28.141900000    22.852000000   0   0   0 # cp
    244      1   1 -0.100000    12.567300000    27.640200000    24.054400000   0   0   0 # cp
    245      1   1  0.000000    12.124700000    26.391000000    24.491200000   0   0   0 # cp
    246      1   3  0.000000    11.045100000    27.773700000    20.445400000   0   0   0 # c
    247      1   1  0.000000    14.685200000    25.649500000    19.406800000   0   0   0 # cp
    248      1   1 -0.100000    13.478300000    25.009600000    19.326200000   0   0   0 # cp
    249      1   1 -0.100000    12.311600000    25.680800000    19.608400000   0   0   0 # cp
    250      1   1  0.000000    12.350000000    27.021400000    19.960200000   0   0   0 # cp
    251      1   1 -0.100000    13.585800000    27.648400000    20.013900000   0   0   0 # cp
    252      1   1 -0.100000    14.729000000    26.979200000    19.735800000   0   0   0 # cp
    253      1   1  0.000000    10.973500000    29.334700000    20.160400000   0   0   0 # cp
    254      1   1 -0.100000    10.214100000    30.091000000    21.021300000   0   0   0 # cp
    255      1   1 -0.100000    10.084700000    31.429500000    20.856100000   0   0   0 # cp
    256      1   1  0.000000    10.701700000    32.044600000    19.771000000   0   0   0 # cp
    257      1   1 -0.100000    11.363100000    31.276000000    18.837700000   0   0   0 # cp
    258      1   1 -0.100000    11.486500000    29.928700000    19.018400000   0   0   0 # cp
    259      1   1 -0.100000     9.700810000    27.006500000    18.324100000   0   0   0 # cp
    260      1   1 -0.100000     8.520300000    26.868900000    17.638100000   0   0   0 # cp
    261      1   1  0.000000     7.352610000    27.065000000    18.296300000   0   0   0 # cp
    262      1   1 -0.100000     7.349930000    27.232400000    19.665600000   0   0   0 # cp
    263      1   1 -0.100000     8.528900000    27.365900000    20.339100000   0   0   0 # cp
    264      1   1  0.000000     9.729450000    27.306200000    19.670600000   0   0   0 # cp
    265      1   2  0.100000    12.100501795    24.199743345     0.048852187   0   0   0 # h
    266      1   2  0.100000    12.741500000    23.593800000    23.713500000   0   0   0 # h
    267      1   2  0.100000    12.263400000    21.333100000    24.012300000   0   0   0 # h
    268      1   2  0.100000    11.629101795    21.911443345     0.310752187   0   0   0 # h
    269      1   2  0.100000    14.467500000    25.780800000    23.258300000   0   0   0 # h
    270      1   2  0.100000    16.879600000    25.635600000    22.928500000   0   0   0 # h
    271      1   2  0.100000    17.394700000    25.423000000    27.198500000   0   0   0 # h
    272      1   2  0.100000    15.035900000    25.526000000    27.512300000   0   0   0 # h
    273      1   2  0.100000    10.660400000    24.866100000    24.101100000   0   0   0 # h
    274      1   2  0.100000    10.070000000    25.647300000    21.952300000   0   0   0 # h
    275      1   2  0.100000    12.567900000    29.059500000    22.485200000   0   0   0 # h
    276      1   2  0.100000    13.312300000    28.183700000    24.585500000   0   0   0 # h
    277      1   2  0.100000    13.389400000    23.988200000    19.060400000   0   0   0 # h
    278      1   2  0.100000    11.360200000    25.119300000    19.604500000   0   0   0 # h
    279      1   2  0.100000    13.661400000    28.678800000    20.286700000   0   0   0 # h
    280      1   2  0.100000    15.665000000    27.511500000    19.859600000   0   0   0 # h
    281      1   2  0.100000     9.712950000    29.635600000    21.856400000   0   0   0 # h
    282      1   2  0.100000     9.524310000    31.991100000    21.609300000   0   0   0 # h
    283      1   2  0.100000    11.834300000    31.730900000    17.988800000   0   0   0 # h
    284      1   2  0.100000    11.977500000    29.320500000    18.252700000   0   0   0 # h
    285      1   2  0.100000    10.638200000    26.934900000    17.752700000   0   0   0 # h
    286      1   2  0.100000     8.568000000    26.699500000    16.578600000   0   0   0 # h
    287      1   2  0.100000     6.400660000    27.191100000    20.195600000   0   0   0 # h
    288      1   2  0.100000     8.565380000    27.583000000    21.394500000   0   0   0 # h
    289      1   1  0.000000     4.683430000    14.514000000    23.110500000   0   0   0 # cp
    290      1   1 -0.100000     5.277510000    13.421000000    23.681400000   0   0   0 # cp
    291      1   1 -0.100000     6.092250000    13.544500000    24.768800000   0   0   0 # cp
    292      1   1  0.000000     6.309740000    14.764900000    25.374300000   0   0   0 # cp
    293      1   1 -0.100000     5.615530000    15.865100000    24.863600000   0   0   0 # cp
    294      1   1 -0.100000     4.836040000    15.743000000    23.720100000   0   0   0 # cp
    295      1   2  0.100000     5.136650000    12.496700000    23.188200000   0   0   0 # h
    296      1   2  0.100000     6.607490000    12.644500000    25.118300000   0   0   0 # h
    297      1   2  0.100000     5.731010000    16.833700000    25.344200000   0   0   0 # h
    298      1   2  0.100000     4.374040000    16.616900000    23.316400000   0   0   0 # h
    299      1   1 -0.100000     8.604840000    16.773700000    25.568400000   0   0   0 # cp