LAMMPS data file. msi2lmp v3.9.11 / 6 Sep 2024 / CGCMM for wmg_1_opt

   3240 atoms
   3564 bonds
   6264 angles
  10044 dihedrals
   1512 impropers

   4 atom types
   6 bond types
   9 angle types
  13 dihedral types
   3 improper types

   -14.703920882    45.982379118 xlo xhi
    -1.025773446    51.643356458 ylo yhi
     0.060172823    42.891958233 zlo zhi
   -30.626605623    -0.159541103    -0.525006027 xy xz yz

Masses

   1  12.011150 # cp
   2   1.007970 # h
   3  12.011150 # c
   4  12.011150 # c2

Pair Coeffs # lj/cut/coul/long

   1   0.1479999981   3.6170487995 # cp
   2   0.0380000011   2.4499714540 # h
   3   0.1599999990   3.4745050026 # c
   4   0.0389999952   3.8754094636 # c2

Bond Coeffs # harmonic

   1   480.0000     1.3400 # cp-cp
   2   283.0924     1.5100 # cp-c2
   3   363.4164     1.0800 # cp-h
   4   283.0924     1.5100 # cp-c
   5   322.7158     1.5260 # c2-c2
   6   340.6175     1.1050 # h-c2

Angle Coeffs # harmonic

   1    90.0000   120.0000 # cp-cp-cp
   2    44.2000   120.0000 # cp-cp-c2
   3    37.0000   120.0000 # cp-cp-h
   4    44.2000   120.0000 # cp-cp-c
   5    46.6000   110.5000 # cp-c-cp
   6    46.6000   110.5000 # cp-c2-c2
   7    44.4000   110.0000 # cp-c2-h
   8    44.4000   110.0000 # h-c2-c2
   9    39.5000   106.4000 # h-c2-h

Dihedral Coeffs # harmonic

  1     3.0000  -1   2 # cp-cp-cp-cp
  2     3.0000  -1   2 # cp-cp-cp-h
  3     3.0000  -1   2 # cp-cp-cp-c2
  4     3.0000  -1   2 # h-cp-cp-c2
  5     0.0000   1   2 # cp-cp-c2-c2
  6     0.0000   1   2 # cp-cp-c2-h
  7     3.0000  -1   2 # h-cp-cp-h
  8     3.0000  -1   2 # cp-cp-cp-c
  9     3.0000  -1   2 # h-cp-cp-c
 10     0.6750   1   4 # cp-cp-c-cp
 11     0.1581   1   3 # cp-c2-c2-cp
 12     0.1581   1   3 # cp-c2-c2-h
 13     0.1581   1   3 # h-c2-c2-h

Improper Coeffs # cvff

    1     0.3700  -1   2 # cp-cp-cp-c2
    2     0.3700  -1   2 # cp-cp-cp-h
    3     0.3700  -1   2 # cp-cp-cp-c

Atoms # full

      1      1   1  0.000000    20.554500000    21.372300000     5.883610000   0   0   0 # cp
      2      1   1 -0.100000    20.254500000    21.875900000     4.649000000   0   0   0 # cp
      3      1   1 -0.100000    19.400700000    22.940800000     4.548510000   0   0   0 # cp
      4      1   1  0.000000    18.758700000    23.449600000     5.638530000   0   0   0 # cp
      5      1   1 -0.100000    19.125800000    22.971700000     6.901990000   0   0   0 # cp
      6      1   1 -0.100000    20.038900000    21.956700000     7.038060000   0   0   0 # cp
      7      1   2  0.100000    20.697200000    21.397700000     3.793870000   0   0   0 # h
      8      1   2  0.100000    19.235600000    23.317500000     3.563200000   0   0   0 # h
      9      1   2  0.100000    18.804800000    23.430900000     7.821880000   0   0   0 # h
     10      1   2  0.100000    20.259800000    21.630900000     8.016000000   0   0   0 # h
     11      1   1 -0.100000    16.043400000    23.493000000     7.066600000   0   0   0 # cp
     12      1   1  0.000000    16.666600000    24.662800000     6.688230000   0   0   0 # cp
     13      1   1 -0.100000    16.268900000    25.816800000     7.353210000   0   0   0 # cp
     14      1   1 -0.100000    15.422400000    25.774600000     8.429840000   0   0   0 # cp
     15      1   1  0.000000    14.869900000    24.565700000     8.808480000   0   0   0 # cp
     16      1   1 -0.100000    15.150500000    23.431000000     8.107450000   0   0   0 # cp
     17      1   3  0.000000    17.738000000    24.670300000     5.513940000   0   0   0 # c
     18      1   1  0.000000    16.681100000    24.735000000     4.328640000   0   0   0 # cp
     19      1   1 -0.100000    16.105000000    25.960600000     3.965550000   0   0   0 # cp
     20      1   1 -0.100000    15.145300000    26.041600000     2.990950000   0   0   0 # cp
     21      1   1  0.000000    14.832500000    24.918300000     2.266330000   0   0   0 # cp
     22      1   1 -0.100000    15.402800000    23.712300000     2.545760000   0   0   0 # cp
     23      1   1 -0.100000    16.259500000    23.599800000     3.621800000   0   0   0 # cp
     24      1   1 -0.100000    19.402400000    26.347800000     6.658030000   0   0   0 # cp
     25      1   1 -0.100000    20.240700000    27.442500000     6.638800000   0   0   0 # cp
     26      1   1  0.000000    20.451400000    28.146500000     5.471170000   0   0   0 # cp
     27      1   1 -0.100000    19.847500000    27.666500000     4.308350000   0   0   0 # cp
     28      1   1 -0.100000    19.147600000    26.493500000     4.338760000   0   0   0 # cp
     29      1   1  0.000000    18.787300000    25.881700000     5.529440000   0   0   0 # cp
     30      1   3  0.000000    21.149600000    29.596500000     5.483830000   0   0   0 # c
     31      1   1  0.000000    17.708400000    31.633800000     7.220400000   0   0   0 # cp
     32      1   1 -0.100000    18.779000000    31.308600000     8.038890000   0   0   0 # cp
     33      1   1 -0.100000    19.897700000    30.692700000     7.497160000   0   0   0 # cp
     34      1   1  0.000000    19.943200000    30.380600000     6.139070000   0   0   0 # cp
     35      1   1 -0.100000    18.864300000    30.748900000     5.349930000   0   0   0 # cp
     36      1   1 -0.100000    17.753300000    31.332500000     5.896030000   0   0   0 # cp
     37      1   1  0.000000    21.656200000    30.159300000     4.074280000   0   0   0 # cp
     38      1   1 -0.100000    22.268900000    29.348400000     3.126880000   0   0   0 # cp
     39      1   1 -0.100000    22.666800000    29.868300000     1.928150000   0   0   0 # cp
     40      1   1  0.000000    22.577800000    31.227700000     1.692770000   0   0   0 # cp
     41      1   1 -0.100000    22.059400000    32.045500000     2.661770000   0   0   0 # cp
     42      1   1 -0.100000    21.610100000    31.525000000     3.830560000   0   0   0 # cp
     43      1   1 -0.100000    23.018300000    30.805500000     6.812050000   0   0   0 # cp
     44      1   1 -0.100000    24.285400000    30.924500000     7.292570000   0   0   0 # cp
     45      1   1  0.000000    25.161900000    29.856500000     7.187530000   0   0   0 # cp
     46      1   1 -0.100000    24.702700000    28.664800000     6.651300000   0   0   0 # cp
     47      1   1 -0.100000    23.403300000    28.537200000     6.274960000   0   0   0 # cp
     48      1   1  0.000000    22.539500000    29.625300000     6.280940000   0   0   0 # cp
     49      1   2  0.100000    16.326300000    22.558200000     6.578360000   0   0   0 # h
     50      1   2  0.100000    16.587300000    26.819200000     7.034600000   0   0   0 # h
     51      1   2  0.100000    15.159700000    26.673300000     8.953850000   0   0   0 # h
     52      1   2  0.100000    14.779100000    22.494000000     8.421240000   0   0   0 # h
     53      1   2  0.100000    16.374300000    26.881600000     4.462780000   0   0   0 # h
     54      1   2  0.100000    14.693900000    26.982200000     2.759680000   0   0   0 # h
     55      1   2  0.100000    15.131800000    22.844100000     1.991530000   0   0   0 # h
     56      1   2  0.100000    16.630200000    22.630900000     3.904790000   0   0   0 # h
     57      1   2  0.100000    19.249200000    25.853200000     7.611160000   0   0   0 # h
     58      1   2  0.100000    20.620800000    27.796800000     7.570880000   0   0   0 # h
     59      1   2  0.100000    19.926400000    28.175600000     3.359620000   0   0   0 # h
     60      1   2  0.100000    18.874300000    26.081300000     3.375710000   0   0   0 # h
     61      1   2  0.100000    18.770200000    31.455500000     9.132090000   0   0   0 # h
     62      1   2  0.100000    20.678100000    30.379400000     8.177220000   0   0   0 # h
     63      1   2  0.100000    18.879700000    30.488400000     4.291950000   0   0   0 # h
     64      1   2  0.100000    16.906000000    31.549500000     5.257540000   0   0   0 # h
     65      1   2  0.100000    22.421000000    28.288800000     3.241760000   0   0   0 # h
     66      1   2  0.100000    23.178800000    29.173100000     1.250640000   0   0   0 # h
     67      1   2  0.100000    21.992800000    33.085200000     2.525830000   0   0   0 # h
     68      1   2  0.100000    21.223400000    32.189000000     4.614190000   0   0   0 # h
     69      1   2  0.100000    22.405200000    31.709200000     6.830400000   0   0   0 # h
     70      1   2  0.100000    24.560200000    31.868300000     7.740270000   0   0   0 # h
     71      1   2  0.100000    25.418300000    27.836600000     6.511820000   0   0   0 # h
     72      1   2  0.100000    23.118000000    27.565300000     5.894310000   0   0   0 # h
     73      1   1  0.000000    13.646900000    25.193100000    19.987500000   0   0   0 # cp
     74      1   1 -0.100000    12.512900000    25.945500000    19.850000000   0   0   0 # cp
     75      1   1 -0.100000    11.839200000    25.986800000    18.656400000   0   0   0 # cp
     76      1   1  0.000000    12.346100000    25.304500000    17.534600000   0   0   0 # cp
     77      1   1 -0.100000    13.380100000    24.391600000    17.736200000   0   0   0 # cp
     78      1   1 -0.100000    14.049000000    24.385100000    18.934700000   0   0   0 # cp
     79      1   2  0.100000    12.187100000    26.550000000    20.676600000   0   0   0 # h
     80      1   2  0.100000    11.038900000    26.657000000    18.538200000   0   0   0 # h
     81      1   2  0.100000    13.733400000    23.762300000    16.902600000   0   0   0 # h
     82      1   2  0.100000    14.953000000    23.768000000    19.039700000   0   0   0 # h
     83      1   1 -0.100000    13.870000000    25.296600000    14.689900000   0   0   0 # cp
     84      1   1  0.000000    12.519200000    25.009000000    14.844000000   0   0   0 # cp
     85      1   1 -0.100000    11.876900000    24.395500000    13.780200000   0   0   0 # cp
     86      1   1 -0.100000    12.575500000    24.040500000    12.633600000   0   0   0 # cp
     87      1   1  0.000000    13.908400000    24.349600000    12.532900000   0   0   0 # cp
     88      1   1 -0.100000    14.568300000    24.937800000    13.554000000   0   0   0 # cp
     89      1   3  0.000000    11.713900000    25.605800000    16.079400000   0   0   0 # c
     90      1   1  0.000000    11.732300000    27.164200000    15.716500000   0   0   0 # cp
     91      1   1 -0.100000    11.075600000    27.674100000    14.566000000   0   0   0 # cp
     92      1   1 -0.100000    11.333600000    28.944900000    14.113800000   0   0   0 # cp
     93      1   1  0.000000    12.246900000    29.750700000    14.771500000   0   0   0 # cp
     94      1   1 -0.100000    12.875600000    29.280900000    15.878300000   0   0   0 # cp
     95      1   1 -0.100000    12.623200000    28.032000000    16.350800000   0   0   0 # cp
     96      1   1 -0.100000    10.285700000    23.491000000    16.427100000   0   0   0 # cp
     97      1   1 -0.100000     9.171720000    22.731900000    16.091100000   0   0   0 # cp
     98      1   1  0.000000     8.061550000    23.330600000    15.519800000   0   0   0 # cp
     99      1   1 -0.100000     8.047620000    24.706300000    15.494700000   0   0   0 # cp
    100      1   1 -0.100000     9.102880000    25.482900000    15.928000000   0   0   0 # cp
    101      1   1  0.000000    10.307800000    24.867100000    16.222400000   0   0   0 # cp
    102      1   3  0.000000     6.964800000    22.407500000    14.790300000   0   0   0 # c
    103      1   1  0.000000     9.697880000    20.870500000    11.622600000   0   0   0 # cp
    104      1   1 -0.100000     9.355190000    20.092200000    12.689100000   0   0   0 # cp
    105      1   1 -0.100000     8.527570000    20.592800000    13.674000000   0   0   0 # cp
    106      1   1  0.000000     7.900020000    21.822800000    13.556200000   0   0   0 # cp
    107      1   1 -0.100000     8.278080000    22.597200000    12.470100000   0   0   0 # cp
    108      1   1 -0.100000     9.143660000    22.148600000    11.502700000   0   0   0 # cp
    109      1   1  0.000000     5.624490000    23.146300000    14.371300000   0   0   0 # cp
    110      1   1 -0.100000     4.968770000    24.037000000    15.216200000   0   0   0 # cp
    111      1   1 -0.100000     3.971630000    24.880700000    14.738200000   0   0   0 # cp
    112      1   1  0.000000     3.547890000    24.808500000    13.411800000   0   0   0 # cp
    113      1   1 -0.100000     4.074540000    23.804500000    12.638300000   0   0   0 # cp
    114      1   1 -0.100000     5.049190000    22.967500000    13.114600000   0   0   0 # cp
    115      1   1 -0.100000     5.664450000    20.211500000    15.177200000   0   0   0 # cp
    116      1   1 -0.100000     5.211580000    19.158700000    15.928400000   0   0   0 # cp
    117      1   1  0.000000     5.399420000    19.153700000    17.294900000   0   0   0 # cp
    118      1   1 -0.100000     5.937540000    20.268000000    17.906400000   0   0   0 # cp
    119      1   1 -0.100000     6.423540000    21.308900000    17.123000000   0   0   0 # cp
    120      1   1  0.000000     6.338400000    21.269500000    15.744400000   0   0   0 # cp
    121      1   2  0.100000    14.379800000    25.815400000    15.485100000   0   0   0 # h
    122      1   2  0.100000    10.854200000    24.179800000    13.757200000   0   0   0 # h
    123      1   2  0.100000    11.990700000    23.646000000    11.816500000   0   0   0 # h
    124      1   2  0.100000    15.627100000    25.177300000    13.472600000   0   0   0 # h
    125      1   2  0.100000    10.414800000    27.035800000    14.013300000   0   0   0 # h
    126      1   2  0.100000    10.821700000    29.294700000    13.199300000   0   0   0 # h
    127      1   2  0.100000    13.629300000    29.862800000    16.362700000   0   0   0 # h
    128      1   2  0.100000    13.223200000    27.721400000    17.174300000   0   0   0 # h
    129      1   2  0.100000    11.219200000    22.944200000    16.629200000   0   0   0 # h
    130      1   2  0.100000     9.197350000    21.656700000    16.307200000   0   0   0 # h
    131      1   2  0.100000     7.240000000    25.276500000    15.030200000   0   0   0 # h
    132      1   2  0.100000     9.022530000    26.555900000    15.801800000   0   0   0 # h
    133      1   2  0.100000     9.789420000    19.109200000    12.810200000   0   0   0 # h
    134      1   2  0.100000     8.341910000    20.014900000    14.565400000   0   0   0 # h
    135      1   2  0.100000     7.879300000    23.593400000    12.335600000   0   0   0 # h
    136      1   2  0.100000     9.389140000    22.757000000    10.677100000   0   0   0 # h
    137      1   2  0.100000     5.230700000    24.148000000    16.257600000   0   0   0 # h
    138      1   2  0.100000     3.565030000    25.614900000    15.383800000   0   0   0 # h
    139      1   2  0.100000     3.770420000    23.656500000    11.596900000   0   0   0 # h
    140      1   2  0.100000     5.491690000    22.266200000    12.426900000   0   0   0 # h
    141      1   2  0.100000     5.491340000    20.156100000    14.114300000   0   0   0 # h
    142      1   2  0.100000     4.787650000    18.287900000    15.460100000   0   0   0 # h
    143      1   2  0.100000     5.916520000    20.300500000    18.974200000   0   0   0 # h
    144      1   2  0.100000     6.817840000    22.196300000    17.596800000   0   0   0 # h
    145      1   1  0.000000     7.778470000    41.569500000    12.567500000   0   0   0 # cp
    146      1   1 -0.100000     8.366830000    41.471500000    11.315800000   0   0   0 # cp
    147      1   1 -0.100000     9.724950000    41.618400000    11.155500000   0   0   0 # cp
    148      1   1  0.000000    10.532600000    41.769500000    12.278900000   0   0   0 # cp
    149      1   1 -0.100000     9.938090000    41.754000000    13.512100000   0   0   0 # cp
    150      1   1 -0.100000     8.577260000    41.703300000    13.663700000   0   0   0 # cp
    151      1   2  0.100000     7.758440000    41.396800000    10.437100000   0   0   0 # h
    152      1   2  0.100000    10.120900000    41.589800000    10.152700000   0   0   0 # h
    153      1   2  0.100000    10.556300000    41.795800000    14.398700000   0   0   0 # h
    154      1   2  0.100000     8.184800000    41.655800000    14.665500000   0   0   0 # h
    155      1   1 -0.100000    11.866500000    44.178300000    13.605100000   0   0   0 # cp
    156      1   1  0.000000    12.585400000    43.058700000    13.238100000   0   0   0 # cp
    157      1   1 -0.100000    13.805000000    42.837000000    13.857800000   0   0   0 # cp
    158      1   1 -0.100000    14.246900000    43.655300000    14.877800000   0   0   0 # cp
    159      1   1  0.000000    13.482000000    44.743600000    15.240100000   0   0   0 # cp
    160      1   1 -0.100000    12.284000000    44.981900000    14.614900000   0   0   0 # cp
    161      1   3  0.000000    12.081700000    42.103800000    12.091400000   0   0   0 # c
    162      1   1  0.000000    12.543500000    43.019000000    10.846800000   0   0   0 # cp
    163      1   1 -0.100000    13.893100000    43.091300000    10.509900000   0   0   0 # cp
    164      1   1 -0.100000    14.348800000    43.879700000     9.504860000   0   0   0 # cp
    165      1   1  0.000000    13.452700000    44.677200000     8.835650000   0   0   0 # cp
    166      1   1 -0.100000    12.099600000    44.618400000     9.154190000   0   0   0 # cp
    167      1   1 -0.100000    11.663200000    43.816800000    10.150600000   0   0   0 # cp
    168      1   1 -0.100000    12.764000000    39.867100000    13.295600000   0   0   0 # cp
    169      1   1 -0.100000    13.489000000    38.712500000    13.349700000   0   0   0 # cp
    170      1   1  0.000000    14.057500000    38.177500000    12.212100000   0   0   0 # cp
    171      1   1 -0.100000    13.881000000    38.849400000    11.006100000   0   0   0 # cp
    172      1   1 -0.100000    13.169200000    40.023400000    10.970200000   0   0   0 # cp
    173      1   1  0.000000    12.688900000    40.621800000    12.125500000   0   0   0 # cp
    174      1   3  0.000000    15.004600000    36.892800000    12.310200000   0   0   0 # c
    175      1   1  0.000000    18.446300000    39.052800000    14.000900000   0   0   0 # cp
    176      1   1 -0.100000    17.583500000    38.373400000    14.848300000   0   0   0 # cp
    177      1   1 -0.100000    16.511600000    37.689400000    14.339600000   0   0   0 # cp
    178      1   1  0.000000    16.273200000    37.650000000    12.971400000   0   0   0 # cp
    179      1   1 -0.100000    17.133400000    38.369800000    12.132000000   0   0   0 # cp
    180      1   1 -0.100000    18.216000000    39.054400000    12.640500000   0   0   0 # cp
    181      1   1  0.000000    15.343000000    36.050100000    10.988900000   0   0   0 # cp
    182      1   1 -0.100000    14.353600000    35.780800000    10.051600000   0   0   0 # cp
    183      1   1 -0.100000    14.646000000    35.073800000     8.916600000   0   0   0 # cp
    184      1   1  0.000000    15.920300000    34.590800000     8.728840000   0   0   0 # cp
    185      1   1 -0.100000    16.875500000    34.832500000     9.659250000   0   0   0 # cp
    186      1   1 -0.100000    16.594800000    35.458400000    10.809800000   0   0   0 # cp
    187      1   1 -0.100000    15.037500000    34.785500000    13.857300000   0   0   0 # cp
    188      1   1 -0.100000    14.446100000    33.718100000    14.484900000   0   0   0 # cp
    189      1   1  0.000000    13.079000000    33.551000000    14.436600000   0   0   0 # cp
    190      1   1 -0.100000    12.342700000    34.415400000    13.686600000   0   0   0 # cp
    191      1   1 -0.100000    12.923100000    35.493900000    13.075700000   0   0   0 # cp
    192      1   1  0.000000    14.305000000    35.686200000    13.112800000   0   0   0 # cp
    193      1   2  0.100000    10.902900000    44.396200000    13.166100000   0   0   0 # h
    194      1   2  0.100000    14.452900000    42.040600000    13.537300000   0   0   0 # h
    195      1   2  0.100000    15.163100000    43.387100000    15.379400000   0   0   0 # h
    196      1   2  0.100000    11.715300000    45.828400000    14.998700000   0   0   0 # h
    197      1   2  0.100000    14.608900000    42.466700000    11.040300000   0   0   0 # h
    198      1   2  0.100000    15.428800000    43.895900000     9.331490000   0   0   0 # h
    199      1   2  0.100000    11.363800000    45.198800000     8.599400000   0   0   0 # h
    200      1   2  0.100000    10.629900000    43.904500000    10.404800000   0   0   0 # h
    201      1   2  0.100000    12.401500000    40.285400000    14.241200000   0   0   0 # h
    202      1   2  0.100000    13.656800000    38.263200000    14.318000000   0   0   0 # h
    203      1   2  0.100000    14.338400000    38.495900000    10.107900000   0   0   0 # h
    204      1   2  0.100000    13.039200000    40.517000000    10.003800000   0   0   0 # h
    205      1   2  0.100000    17.721100000    38.344300000    15.934500000   0   0   0 # h
    206      1   2  0.100000    15.825500000    37.227400000    15.029400000   0   0   0 # h
    207      1   2  0.100000    16.940300000    38.382800000    11.069900000   0   0   0 # h
    208      1   2  0.100000    18.896300000    39.580800000    12.004500000   0   0   0 # h
    209      1   2  0.100000    13.356800000    36.160400000    10.215100000   0   0   0 # h
    210      1   2  0.100000    13.853300000    34.978500000     8.183590000   0   0   0 # h
    211      1   2  0.100000    17.857000000    34.406000000     9.570140000   0   0   0 # h
    212      1   2  0.100000    17.404600000    35.585600000    11.512900000   0   0   0 # h
    213      1   2  0.100000    16.121900000    34.875600000    13.868100000   0   0   0 # h
    214      1   2  0.100000    15.053000000    33.042400000    15.058700000   0   0   0 # h
    215      1   2  0.100000    11.264400000    34.294400000    13.602300000   0   0   0 # h
    216      1   2  0.100000    12.307400000    36.129300000    12.484000000   0   0   0 # h
    217      1   1  0.000000    14.394800000    45.404800000     5.139070000   0   0   0 # cp
    218      1   1 -0.100000    15.563600000    46.101900000     5.014970000   0   0   0 # cp
    219      1   1 -0.100000    15.888800000    46.665600000     3.822470000   0   0   0 # cp
    220      1   1  0.000000    15.130700000    46.426100000     2.689740000   0   0   0 # cp
    221      1   1 -0.100000    13.886400000    45.845200000     2.868990000   0   0   0 # cp
    222      1   1 -0.100000    13.530800000    45.333100000     4.068310000   0   0   0 # cp
    223      1   2  0.100000    16.244000000    46.157300000     5.845870000   0   0   0 # h
    224      1   2  0.100000    16.882900000    47.155100000     3.674880000   0   0   0 # h
    225      1   2  0.100000    13.211500000    45.774500000     2.055570000   0   0   0 # h
    226      1   2  0.100000    12.566900000    44.867300000     4.202060000   0   0   0 # h
    227      1   1 -0.100000    14.284100000    44.892000000    21.182800000   0   0   0 # cp
    228      1   1  0.000000    14.828900000    46.170100000    21.402700000   0   0   0 # cp
    229      1   1 -0.100000    14.701100000    47.072200000    20.350600000   0   0   0 # cp
    230      1   1 -0.100000    14.094600000    46.767200000    19.192600000   0   0   0 # cp
    231      1   1  0.000000    13.519200000    45.532500000    19.006000000   0   0   0 # cp
    232      1   1 -0.100000    13.599200000    44.611400000    20.026100000   0   0   0 # cp
    233      1   3  0.000000    15.788100000    46.768100000     1.261920000   0   0   0 # c
    234      1   1  0.000000    17.066500000    45.841300000     0.987498000   0   0   0 # cp
    235      1   1 -0.100000    17.788700000    45.782800000    21.276700000   0   0   0 # cp
    236      1   1 -0.100000    18.744100000    44.866200000    20.893100000   0   0   0 # cp
    237      1   1  0.000000    18.994370641    43.979903309     0.240883221   0   0   0 # cp
    238      1   1 -0.100000    18.280600000    43.785700000     1.366430000   0   0   0 # cp
    239      1   1 -0.100000    17.300700000    44.671500000     1.709660000   0   0   0 # cp
    240      1   1 -0.100000    14.898700000    49.168800000     1.590710000   0   0   0 # cp
    241      1   1 -0.100000    14.939500000    50.507600000     1.342160000   0   0   0 # cp
    242      1   1  0.000000   -44.686900000    51.070400000     0.639856000   1   0   0 # cp
    243      1   1 -0.100000   -43.563159617    50.288003309     0.487583221   1   0   0 # cp
    244      1   1 -0.100000   -43.554400000    48.982800000     0.953780000   1   0   0 # cp
    245      1   1  0.000000    15.978700000    48.353700000     1.328810000   0   0   0 # cp
    246      1   3  0.000000   -14.313224635    -0.418929905    21.313800000   1   1   0 # c
    247      1   1  0.000000    12.922000000    50.743200000    18.292300000   0   0   0 # cp
    248      1   1 -0.100000    43.133305623    -1.199729905    19.385200000   0   1   0 # cp
    249      1   1 -0.100000    44.016205623    -0.719229905    20.290000000   0   1   0 # cp
    250      1   1  0.000000    45.382205623    -0.912529905    20.143600000   0   1   0 # cp
    251      1   1 -0.100000    15.189200000    51.060700000    19.032700000   0   0   0 # cp
    252      1   1 -0.100000    14.288900000    50.571300000    18.111300000   0   0   0 # cp
    253      1   1  0.000000   -12.980130258     0.228417000    20.777500000   1   0   0 # cp
    254      1   1 -0.100000   -11.728954014     0.490473439     0.124383221   1   0   0 # cp
    255      1   1 -0.100000   -10.605530258     0.599655000    20.982200000   1   0   0 # cp
    256      1   1  0.000000   -10.551830258     1.071740000    19.691000000   1   0   0 # cp
    257      1   1 -0.100000   -11.735330258     1.219520000    18.982800000   1   0   0 # cp
    258      1   1 -0.100000   -12.924930258     0.858035000    19.547200000   1   0   0 # cp
    259      1   1 -0.100000   -15.365159617     2.185153309     0.169083221   1   0   0 # cp
    260      1   1 -0.100000   -16.158400000     3.044410000     0.883612000   1   0   0 # cp
    261      1   1  0.000000   -16.377700000     2.818370000     2.244830000   1   0   0 # cp
    262      1   1 -0.100000   -15.679930258     1.820130000     2.879520000   1   0   0 # cp
    263      1   1 -0.100000   -14.903430258     0.958999000     2.134240000   1   0   0 # cp
    264      1   1  0.000000   -14.849330258     1.047990000     0.770007000   1   0   0 # cp
    265      1   2  0.100000    14.538970641    44.392603309     0.460783221   0   0   0 # h
    266      1   2  0.100000    15.177700000    48.066200000    20.386600000   0   0   0 # h
    267      1   2  0.100000    14.099400000    47.508600000    18.379400000   0   0   0 # h
    268      1   2  0.100000    13.169700000    43.616400000    19.877300000   0   0   0 # h
    269      1   2  0.100000    17.616400000    46.626600000    20.596800000   0   0   0 # h
    270      1   2  0.100000   -41.350600000    45.014700000    19.992400000   1   0   0 # h
    271      1   2  0.100000    18.399600000    42.891600000     1.945650000   0   0   0 # h
    272      1   2  0.100000    16.704800000    44.385100000     2.552150000   0   0   0 # h
    273      1   2  0.100000    13.955400000    48.777700000     1.983240000   0   0   0 # h
    274      1   2  0.100000    14.025800000    51.019000000     1.534240000   0   0   0 # h
    275      1   2  0.100000   -42.759630258    50.379800000    21.343600000   1   0   0 # h
    276      1   2  0.100000   -42.628430258    48.437500000     0.822495000   1   0   0 # h
    277      1   2  0.100000    42.082905623    -1.064629905    19.507700000   0   1   0 # h
    278      1   2  0.100000    43.568505604    -0.221829871    21.106100000   0   0   0 # h
    279      1   2  0.100000   -44.472800000    50.792100000    18.903200000   1   0   0 # h
    280      1   2  0.100000    14.612700000    49.970200000    17.265500000   0   0   0 # h
    281      1   2  0.100000   -11.777124655     0.140370129     1.151520000   1   0   0 # h
    282      1   2  0.100000    -9.626739617     0.764152309     0.162583221   1   0   0 # h
    283      1   2  0.100000   -11.692930258     1.553100000    17.941400000   1   0   0 # h
    284      1   2  0.100000   -13.804830258     1.010120000    18.939700000   1   0   0 # h
    285      1   2  0.100000   -15.267130258     2.085060000    20.527600000   1   0   0 # h
    286      1   2  0.100000   -16.648129359     3.881533309     0.370083221   1   0   0 # h
    287      1   2  0.100000   -15.712330258     1.603590000     3.956750000   1   0   0 # h
    288      1   2  0.100000   -14.452924655     0.153670129     2.705340000   1   0   0 # h
    289      1   1  0.000000   -21.385530258    23.712300000     4.731950000   1   0   0 # cp
    290      1   1 -0.100000   -20.555230258    23.767100000     3.642900000   1   0   0 # cp
    291      1   1 -0.100000   -19.201030258    23.973200000     3.831810000   1   0   0 # cp
    292      1   1  0.000000   -18.670530258    24.065800000     5.082710000   1   0   0 # cp
    293      1   1 -0.100000   -19.512730258    23.851600000     6.158780000   1   0   0 # cp
    294      1   1 -0.100000   -20.843830258    23.710600000     5.983880000   1   0   0 # cp
    295      1   2  0.100000   -20.967830258    23.704200000     2.656390000   1   0   0 # h
    296      1   2  0.100000   -18.555430258    23.987800000     2.943710000   1   0   0 # h
    297      1   2  0.100000   -19.140830258    23.955500000     7.161760000   1   0   0 # h
    298      1   2  0.100000   -21.443830258    23.676100000     6.864870000   1   0   0 # h
    299      1   1 -0.100000   -17.576630258    26.241500000     7.049590000   1   0   0 # cp