LAMMPS data file. msi2lmp v3.9.11 / 6 Sep 2024 / CGCMM for wmy_0_opt

   3240 atoms
   3564 bonds
   6264 angles
  10044 dihedrals
   1512 impropers

   4 atom types
   6 bond types
   9 angle types
  13 dihedral types
   3 improper types

   -11.885799897    35.266900103 xlo xhi
    -0.278642420    40.895869936 ylo yhi
    -0.239303419    46.418418481 zlo zhi
   -23.283466570     0.587573028    -0.129072129 xy xz yz

Masses

   1  12.011150 # cp
   2   1.007970 # h
   3  12.011150 # c
   4  12.011150 # c2

Pair Coeffs # lj/cut/coul/long

   1   0.1479999981   3.6170487995 # cp
   2   0.0380000011   2.4499714540 # h
   3   0.1599999990   3.4745050026 # c
   4   0.0389999952   3.8754094636 # c2

Bond Coeffs # harmonic

   1   480.0000     1.3400 # cp-cp
   2   283.0924     1.5100 # cp-c2
   3   363.4164     1.0800 # cp-h
   4   283.0924     1.5100 # cp-c
   5   322.7158     1.5260 # c2-c2
   6   340.6175     1.1050 # h-c2

Angle Coeffs # harmonic

   1    90.0000   120.0000 # cp-cp-cp
   2    44.2000   120.0000 # cp-cp-c2
   3    37.0000   120.0000 # cp-cp-h
   4    44.2000   120.0000 # cp-cp-c
   5    46.6000   110.5000 # cp-c-cp
   6    46.6000   110.5000 # cp-c2-c2
   7    44.4000   110.0000 # cp-c2-h
   8    44.4000   110.0000 # h-c2-c2
   9    39.5000   106.4000 # h-c2-h

Dihedral Coeffs # harmonic

  1     3.0000  -1   2 # cp-cp-cp-cp
  2     3.0000  -1   2 # cp-cp-cp-h
  3     3.0000  -1   2 # cp-cp-cp-c2
  4     3.0000  -1   2 # h-cp-cp-c2
  5     0.0000   1   2 # cp-cp-c2-c2
  6     0.0000   1   2 # cp-cp-c2-h
  7     3.0000  -1   2 # h-cp-cp-h
  8     3.0000  -1   2 # cp-cp-cp-c
  9     3.0000  -1   2 # h-cp-cp-c
 10     0.6750   1   4 # cp-cp-c-cp
 11     0.1581   1   3 # cp-c2-c2-cp
 12     0.1581   1   3 # cp-c2-c2-h
 13     0.1581   1   3 # h-c2-c2-h

Improper Coeffs # cvff

    1     0.3700  -1   2 # cp-cp-cp-c2
    2     0.3700  -1   2 # cp-cp-cp-h
    3     0.3700  -1   2 # cp-cp-cp-c

Atoms # full

      1      1   1  0.000000    24.025800000    10.010200000    13.492700000   0   0   0 # cp
      2      1   1 -0.100000    24.486700000     8.769930000    13.108300000   0   0   0 # cp
      3      1   1 -0.100000    25.768100000     8.602380000    12.632000000   0   0   0 # cp
      4      1   1  0.000000    26.661700000     9.670850000    12.599000000   0   0   0 # cp
      5      1   1 -0.100000    26.161100000    10.914100000    12.936800000   0   0   0 # cp
      6      1   1 -0.100000    24.854100000    11.096600000    13.349400000   0   0   0 # cp
      7      1   2  0.100000    23.827500000     7.935570000    13.194700000   0   0   0 # h
      8      1   2  0.100000    26.118500000     7.589780000    12.451400000   0   0   0 # h
      9      1   2  0.100000    26.814000000    11.785800000    13.027600000   0   0   0 # h
     10      1   2  0.100000    24.545000000    12.084400000    13.639200000   0   0   0 # h
     11      1   1 -0.100000   -18.304000000    11.614100000    11.231800000   1   0   0 # cp
     12      1   1  0.000000    29.102000000    10.759300000    12.297000000   0   0   0 # cp
     13      1   1 -0.100000   -16.894000000    10.993500000    13.051100000   1   0   0 # cp
     14      1   1 -0.100000   -16.031300000    12.008900000    12.717200000   1   0   0 # cp
     15      1   1  0.000000   -16.217800000    12.735400000    11.571400000   1   0   0 # cp
     16      1   1 -0.100000   -17.359900000    12.546700000    10.841700000   1   0   0 # cp
     17      1   3  0.000000    28.264300000     9.406880000    12.476900000   0   0   0 # c
     18      1   1  0.000000    28.746400000     8.579180000    11.220400000   0   0   0 # cp
     19      1   1 -0.100000    30.057900000     8.133500000    11.126700000   0   0   0 # cp
     20      1   1 -0.100000    30.543500000     7.487140000    10.020700000   0   0   0 # cp
     21      1   1  0.000000    29.708100000     7.250650000     8.970290000   0   0   0 # cp
     22      1   1 -0.100000    28.385700000     7.600690000     9.048680000   0   0   0 # cp
     23      1   1 -0.100000    27.937900000     8.326850000    10.131400000   0   0   0 # cp
     24      1   1 -0.100000    28.224500000     9.333200000    15.065700000   0   0   0 # cp
     25      1   1 -0.100000    27.849700000     8.617090000    16.175000000   0   0   0 # cp
     26      1   1  0.000000    27.800000000     7.225960000    16.129100000   0   0   0 # cp
     27      1   1 -0.100000    28.445900000     6.611690000    15.085400000   0   0   0 # cp
     28      1   1 -0.100000    28.744600000     7.319620000    13.964900000   0   0   0 # cp
     29      1   1  0.000000    28.525100000     8.676390000    13.890600000   0   0   0 # cp
     30      1   3  0.000000    27.070200000     6.367740000    17.287100000   0   0   0 # c
     31      1   1  0.000000    30.411000000     6.840350000    20.019700000   0   0   0 # cp
     32      1   1 -0.100000    29.271500000     7.556490000    20.242500000   0   0   0 # cp
     33      1   1 -0.100000    28.219000000     7.389460000    19.409100000   0   0   0 # cp
     34      1   1  0.000000    28.224500000     6.432990000    18.391100000   0   0   0 # cp
     35      1   1 -0.100000    29.349200000     5.618720000    18.303300000   0   0   0 # cp
     36      1   1 -0.100000    30.443700000     5.874390000    19.073000000   0   0   0 # cp
     37      1   1  0.000000    26.689300000     4.877410000    16.833200000   0   0   0 # cp
     38      1   1 -0.100000    26.133500000     4.610220000    15.601700000   0   0   0 # cp
     39      1   1 -0.100000    25.756500000     3.349630000    15.226400000   0   0   0 # cp
     40      1   1  0.000000    25.810983950     2.319827646    16.133100000   0   0   0 # cp
     41      1   1 -0.100000    26.255843950     2.554627646    17.393900000   0   0   0 # cp
     42      1   1 -0.100000    26.675200000     3.822600000    17.759300000   0   0   0 # cp
     43      1   1 -0.100000    25.040000000     6.413340000    18.919000000   0   0   0 # cp
     44      1   1 -0.100000    23.685200000     6.234860000    19.029800000   0   0   0 # cp
     45      1   1  0.000000    22.847700000     6.627860000    18.006900000   0   0   0 # cp
     46      1   1 -0.100000    23.391800000     7.249000000    16.908700000   0   0   0 # cp
     47      1   1 -0.100000    24.734300000     7.366720000    16.769100000   0   0   0 # cp
     48      1   1  0.000000    25.626200000     6.841300000    17.725500000   0   0   0 # cp
     49      1   2  0.100000    27.972900000    11.460600000    10.640200000   0   0   0 # h
     50      1   2  0.100000   -16.628000000    10.331400000    13.868800000   1   0   0 # h
     51      1   2  0.100000   -15.103200000    12.163100000    13.240500000   1   0   0 # h
     52      1   2  0.100000   -17.504800000    13.096100000     9.911460000   1   0   0 # h
     53      1   2  0.100000   -16.433800000     8.443820000    11.915500000   1   0   0 # h
     54      1   2  0.100000   -15.544400000     7.231290000     9.959600000   1   0   0 # h
     55      1   2  0.100000    27.761600000     7.456210000     8.174170000   0   0   0 # h
     56      1   2  0.100000    26.891800000     8.625350000    10.105100000   0   0   0 # h
     57      1   2  0.100000    28.037600000    10.399000000    15.061500000   0   0   0 # h
     58      1   2  0.100000    27.499800000     9.101910000    17.098900000   0   0   0 # h
     59      1   2  0.100000    28.529200000     5.538810000    15.076600000   0   0   0 # h
     60      1   2  0.100000    29.011200000     6.716770000    13.097900000   0   0   0 # h
     61      1   2  0.100000    29.225300000     8.341040000    20.987600000   0   0   0 # h
     62      1   2  0.100000    27.346000000     8.031230000    19.553700000   0   0   0 # h
     63      1   2  0.100000    29.350500000     4.829720000    17.563800000   0   0   0 # h
     64      1   2  0.100000    31.344700000     5.334100000    18.846300000   0   0   0 # h
     65      1   2  0.100000    25.995200000     5.385920000    14.855900000   0   0   0 # h
     66      1   2  0.100000    25.436700000     3.202330000    14.198700000   0   0   0 # h
     67      1   2  0.100000    26.315383950     1.761827646    18.095300000   0   0   0 # h
     68      1   2  0.100000    27.053400000     3.973990000    18.758000000   0   0   0 # h
     69      1   2  0.100000    25.640700000     6.030240000    19.697300000   0   0   0 # h
     70      1   2  0.100000    23.282300000     5.778140000    19.928500000   0   0   0 # h
     71      1   2  0.100000    22.751500000     7.530930000    16.073100000   0   0   0 # h
     72      1   2  0.100000    25.077300000     7.687370000    15.788200000   0   0   0 # h
     73      1   1  0.000000    -8.118739290    11.241300000    26.091900000   1   0   0 # cp
     74      1   1 -0.100000    -8.369589290    12.167300000    25.118700000   1   0   0 # cp
     75      1   1 -0.100000    -9.512459290    12.142100000    24.406100000   1   0   0 # cp
     76      1   1  0.000000   -10.474649290    11.173900000    24.642500000   1   0   0 # cp
     77      1   1 -0.100000   -10.186949290    10.181400000    25.570500000   1   0   0 # cp
     78      1   1 -0.100000    -9.003829290    10.211100000    26.289900000   1   0   0 # cp
     79      1   2  0.100000    -7.661939290    12.957200000    24.965900000   1   0   0 # h
     80      1   2  0.100000    -9.645849290    12.902000000    23.672300000   1   0   0 # h
     81      1   2  0.100000   -10.905649290     9.403360000    25.808700000   1   0   0 # h
     82      1   2  0.100000    -8.834679290     9.475720000    27.085800000   1   0   0 # h
     83      1   1 -0.100000   -12.120149290     8.884340000    23.122100000   1   0   0 # cp
     84      1   1  0.000000   -12.717749290     9.991930000    23.701100000   1   0   0 # cp
     85      1   1 -0.100000   -14.088700000     9.945330000    23.876500000   1   0   0 # cp
     86      1   1 -0.100000   -14.813700000     8.881990000    23.449800000   1   0   0 # cp
     87      1   1  0.000000   -14.230100000     7.820070000    22.823600000   1   0   0 # cp
     88      1   1 -0.100000   -12.860900000     7.806180000    22.692800000   1   0   0 # cp
     89      1   3  0.000000   -11.905749290    11.321900000    24.006000000   1   0   0 # c
     90      1   1  0.000000   -12.036349290    12.063200000    22.599300000   1   0   0 # cp
     91      1   1 -0.100000   -13.141849290    12.831600000    22.317900000   1   0   0 # cp
     92      1   1 -0.100000   -13.168249290    13.705400000    21.265700000   1   0   0 # cp
     93      1   1  0.000000   -12.132849290    13.696600000    20.366600000   1   0   0 # cp
     94      1   1 -0.100000   -11.107949290    12.785700000    20.513100000   1   0   0 # cp
     95      1   1 -0.100000   -11.086049290    11.951000000    21.602600000   1   0   0 # cp
     96      1   1 -0.100000   -13.190249290    11.673600000    26.303000000   1   0   0 # cp
     97      1   1 -0.100000   -13.991049290    12.449400000    27.085300000   1   0   0 # cp
     98      1   1  0.000000   -14.217249290    13.776500000    26.757300000   1   0   0 # cp
     99      1   1 -0.100000   -13.335049290    14.375100000    25.872200000   1   0   0 # cp
    100      1   1 -0.100000   -12.470249290    13.610300000    25.157100000   1   0   0 # cp
    101      1   1  0.000000   -12.538049290    12.226900000    25.217800000   1   0   0 # cp
    102      1   3  0.000000   -15.615000000    14.492900000    26.956100000   1   0   0 # c
    103      1   1  0.000000   -17.352000000    12.166100000    23.657700000   1   0   0 # cp
    104      1   1 -0.100000   -17.475400000    11.751200000    24.968100000   1   0   0 # cp
    105      1   1 -0.100000   -17.044800000    12.513500000    26.017400000   1   0   0 # cp
    106      1   1  0.000000   -16.406200000    13.734100000    25.766300000   1   0   0 # cp
    107      1   1 -0.100000   -16.280400000    14.144500000    24.443600000   1   0   0 # cp
    108      1   1 -0.100000   -16.809300000    13.420900000    23.414600000   1   0   0 # cp
    109      1   1  0.000000   -15.500249290    16.082200000    26.930000000   1   0   0 # cp
    110      1   1 -0.100000   -14.455449290    16.679000000    27.617700000   1   0   0 # cp
    111      1   1 -0.100000   -14.297949290    18.048600000    27.624600000   1   0   0 # cp
    112      1   1  0.000000   -15.212149290    18.852200000    26.987700000   1   0   0 # cp
    113      1   1 -0.100000   -16.274749290    18.283700000    26.307700000   1   0   0 # cp
    114      1   1 -0.100000   -16.424249290    16.906100000    26.254600000   1   0   0 # cp
    115      1   1 -0.100000   -17.699400000    14.474400000    28.491900000   1   0   0 # cp
    116      1   1 -0.100000   -18.347300000    14.209100000    29.656600000   1   0   0 # cp
    117      1   1  0.000000   -17.661000000    13.788800000    30.769800000   1   0   0 # cp
    118      1   1 -0.100000   -16.278200000    13.711500000    30.697200000   1   0   0 # cp
    119      1   1 -0.100000   -15.642400000    13.997800000    29.518300000   1   0   0 # cp
    120      1   1  0.000000   -16.332200000    14.289600000    28.371800000   1   0   0 # cp
    121      1   2  0.100000   -11.060349290     8.892420000    22.907200000   1   0   0 # h
    122      1   2  0.100000   -14.627100000    10.780100000    24.294300000   1   0   0 # h
    123      1   2  0.100000   -15.873400000     8.911690000    23.627000000   1   0   0 # h
    124      1   2  0.100000   -12.356600000     7.017310000    22.164000000   1   0   0 # h
    125      1   2  0.100000   -13.951649290    12.910100000    23.019100000   1   0   0 # h
    126      1   2  0.100000   -14.024349290    14.358400000    21.168600000   1   0   0 # h
    127      1   2  0.100000   -10.303049290    12.747000000    19.778600000   1   0   0 # h
    128      1   2  0.100000   -10.257949290    11.264700000    21.740300000   1   0   0 # h
    129      1   2  0.100000   -13.097349290    10.626400000    26.456900000   1   0   0 # h
    130      1   2  0.100000   -14.641600000    11.958900000    27.798800000   1   0   0 # h
    131      1   2  0.100000   -13.424849290    15.388500000    25.543700000   1   0   0 # h
    132      1   2  0.100000   -11.831749290    14.081000000    24.458700000   1   0   0 # h
    133      1   2  0.100000   -17.859600000    10.788100000    25.213200000   1   0   0 # h
    134      1   2  0.100000   -17.201200000    12.099600000    26.998400000   1   0   0 # h
    135      1   2  0.100000   -15.709000000    15.035300000    24.230500000   1   0   0 # h
    136      1   2  0.100000   -16.629200000    13.786700000    22.432800000   1   0   0 # h
    137      1   2  0.100000   -13.771749290    16.060500000    28.161000000   1   0   0 # h
    138      1   2  0.100000   -13.421849290    18.456200000    28.139400000   1   0   0 # h
    139      1   2  0.100000   -17.012849290    18.909600000    25.837800000   1   0   0 # h
    140      1   2  0.100000   -17.196600000    16.518600000    25.630600000   1   0   0 # h
    141      1   2  0.100000   -18.273000000    14.756200000    27.629800000   1   0   0 # h
    142      1   2  0.100000   -19.394900000    14.292700000    29.641700000   1   0   0 # h
    143      1   2  0.100000   -15.665000000    13.500000000    31.561200000   1   0   0 # h
    144      1   2  0.100000   -14.551649290    13.937700000    29.489000000   1   0   0 # h
    145      1   1  0.000000   -22.485949290    29.065100000    26.668200000   1   0   0 # cp
    146      1   1 -0.100000   -23.610800000    28.318800000    26.925400000   1   0   0 # cp
    147      1   1 -0.100000   -23.604400000    26.968200000    26.670100000   1   0   0 # cp
    148      1   1  0.000000   -22.467500000    26.320400000    26.191800000   1   0   0 # cp
    149      1   1 -0.100000   -21.349349290    27.100600000    25.972900000   1   0   0 # cp
    150      1   1 -0.100000   -21.349649290    28.443800000    26.218800000   1   0   0 # cp
    151      1   2  0.100000   -24.500000000    28.817800000    27.277600000   1   0   0 # h
    152      1   2  0.100000   -24.497200000    26.384700000    26.942300000   1   0   0 # h
    153      1   2  0.100000   -20.412449290    26.632400000    25.664400000   1   0   0 # h
    154      1   2  0.100000   -20.475449290    29.020300000    25.988500000   1   0   0 # h
    155      1   1 -0.100000   -21.288300000    24.806900000    23.740800000   1   0   0 # cp
    156      1   1  0.000000   -21.550100000    24.154500000    24.940900000   1   0   0 # cp
    157      1   1 -0.100000   -21.076200000    22.845500000    25.071100000   1   0   0 # cp
    158      1   1 -0.100000   -20.304200000    22.276800000    24.092400000   1   0   0 # cp
    159      1   1  0.000000   -19.992749290    22.982500000    22.943600000   1   0   0 # cp
    160      1   1 -0.100000   -20.453649290    24.259800000    22.782000000   1   0   0 # cp
    161      1   3  0.000000   -22.565200000    24.741900000    26.025300000   1   0   0 # c
    162      1   1  0.000000   -23.907700000    24.187700000    25.367900000   1   0   0 # cp
    163      1   1 -0.100000   -24.399500000    22.925000000    25.594800000   1   0   0 # cp
    164      1   1 -0.100000    21.677900000    22.420500000    24.895600000   0   0   0 # cp
    165      1   1  0.000000    21.033200000    23.197400000    23.962900000   0   0   0 # cp
    166      1   1 -0.100000    21.543800000    24.432700000    23.672600000   0   0   0 # cp
    167      1   1 -0.100000   -24.558700000    24.947100000    24.409900000   1   0   0 # cp
    168      1   1 -0.100000   -20.893649290    24.327300000    27.950500000   1   0   0 # cp
    169      1   1 -0.100000   -20.467249290    23.635300000    29.056900000   1   0   0 # cp
    170      1   1  0.000000   -21.281600000    22.692600000    29.673300000   1   0   0 # cp
    171      1   1 -0.100000   -22.638700000    22.810600000    29.388800000   1   0   0 # cp
    172      1   1 -0.100000   -23.088000000    23.597800000    28.349700000   1   0   0 # cp
    173      1   1  0.000000   -22.199000000    24.224400000    27.493000000   1   0   0 # cp
    174      1   3  0.000000   -20.649900000    21.451900000    30.506200000   1   0   0 # c
    175      1   1  0.000000   -16.630449290    20.670200000    29.021500000   1   0   0 # cp
    176      1   1 -0.100000   -16.948749290    20.267200000    30.309100000   1   0   0 # cp
    177      1   1 -0.100000   -18.230049290    20.398800000    30.755700000   1   0   0 # cp
    178      1   1  0.000000   -19.241600000    20.938700000    29.967900000   1   0   0 # cp
    179      1   1 -0.100000   -18.945249290    21.042100000    28.605300000   1   0   0 # cp
    180      1   1 -0.100000   -17.659449290    20.972200000    28.157100000   1   0   0 # cp
    181      1   1  0.000000   -21.390200000    20.034100000    30.397200000   1   0   0 # cp
    182      1   1 -0.100000   -22.050700000    19.661500000    29.245100000   1   0   0 # cp
    183      1   1 -0.100000    24.580100000    18.422700000    29.103100000   0   0   0 # cp
    184      1   1  0.000000    24.649400000    17.533000000    30.135300000   0   0   0 # cp
    185      1   1 -0.100000    25.274000000    17.857200000    31.310600000   0   0   0 # cp
    186      1   1 -0.100000   -21.299300000    19.092000000    31.416200000   1   0   0 # cp
    187      1   1 -0.100000   -21.520800000    21.812200000    32.922500000   1   0   0 # cp
    188      1   1 -0.100000   -21.218700000    22.021400000    34.239000000   1   0   0 # cp
    189      1   1  0.000000   -19.993300000    22.534200000    34.625200000   1   0   0 # cp
    190      1   1 -0.100000   -19.133149290    22.941200000    33.644500000   1   0   0 # cp
    191      1   1 -0.100000   -19.471449290    22.801700000    32.304200000   1   0   0 # cp
    192      1   1  0.000000   -20.596800000    22.089900000    31.935600000   1   0   0 # cp
    193      1   2  0.100000   -21.735349290    25.737900000    23.494100000   1   0   0 # h
    194      1   2  0.100000   -21.395000000    22.221800000    25.903600000   1   0   0 # h
    195      1   2  0.100000   -19.978900000    21.261900000    24.222600000   1   0   0 # h
    196      1   2  0.100000   -20.257149290    24.800400000    21.875500000   1   0   0 # h
    197      1   2  0.100000   -23.876100000    22.239500000    26.233300000   1   0   0 # h
    198      1   2  0.100000    21.353100000    21.416500000    25.127600000   0   0   0 # h
    199      1   2  0.100000    21.076900000    25.045200000    22.938200000   0   0   0 # h
    200      1   2  0.100000   -24.207400000    25.943600000    24.134200000   1   0   0 # h
    201      1   2  0.100000   -20.196949290    24.935800000    27.416100000   1   0   0 # h
    202      1   2  0.100000   -19.435149290    23.702300000    29.374500000   1   0   0 # h
    203      1   2  0.100000   -23.352200000    22.203300000    29.955700000   1   0   0 # h
    204      1   2  0.100000   -24.155100000    23.622000000    28.158900000   1   0   0 # h
    205      1   2  0.100000   -16.153549290    19.974400000    30.968500000   1   0   0 # h
    206      1   2  0.100000   -18.470449290    20.236200000    31.803500000   1   0   0 # h
    207      1   2  0.100000   -19.694600000    21.314700000    27.858100000   1   0   0 # h
    208      1   2  0.100000   -17.472949290    21.219300000    27.135900000   1   0   0 # h
    209      1   2  0.100000   -22.064700000    20.318600000    28.373200000   1   0   0 # h
    210      1   2  0.100000    24.164400000    18.094100000    28.162400000   0   0   0 # h
    211      1   2  0.100000    25.309900000    17.178400000    32.136200000   0   0   0 # h
    212      1   2  0.100000   -20.716500000    19.323200000    32.280900000   1   0   0 # h
    213      1   2  0.100000   -22.449300000    21.306600000    32.694100000   1   0   0 # h
    214      1   2  0.100000   -21.915800000    21.627700000    34.962200000   1   0   0 # h
    215      1   2  0.100000   -18.161049290    23.356400000    33.896400000   1   0   0 # h
    216      1   2  0.100000   -18.744949290    23.072000000    31.550700000   1   0   0 # h
    217      1   1  0.000000    15.214400000    15.092100000    21.820200000   0   0   0 # cp
    218      1   1 -0.100000    14.317500000    15.645300000    20.942800000   0   0   0 # cp
    219      1   1 -0.100000    14.733100000    16.641200000    20.105000000   0   0   0 # cp
    220      1   1  0.000000    16.034700000    17.143100000    20.106000000   0   0   0 # cp
    221      1   1 -0.100000    16.907500000    16.538400000    20.986100000   0   0   0 # cp
    222      1   1 -0.100000    16.502100000    15.546700000    21.850200000   0   0   0 # cp
    223      1   2  0.100000    13.278200000    15.337900000    20.929600000   0   0   0 # h
    224      1   2  0.100000    13.974900000    17.006000000    19.418200000   0   0   0 # h
    225      1   2  0.100000    17.946700000    16.875800000    21.058000000   0   0   0 # h
    226      1   2  0.100000    17.230600000    15.119400000    22.522400000   0   0   0 # h
    227      1   1 -0.100000    17.238900000    19.699400000    21.133100000   0   0   0 # cp
    228      1   1  0.000000    17.508500000    19.330900000    19.814700000   0   0   0 # cp
    229      1   1 -0.100000    18.508700000    20.026400000    19.178300000   0   0   0 # cp
    230      1   1 -0.100000    19.312500000    20.904900000    19.842800000   0   0   0 # cp
    231      1   1  0.000000    19.176200000    21.084900000    21.205500000   0   0   0 # cp
    232      1   1 -0.100000    18.111900000    20.493300000    21.854800000   0   0   0 # cp
    233      1   3  0.000000    16.588200000    18.255700000    19.111600000   0   0   0 # c
    234      1   1  0.000000    15.511900000    19.206600000    18.453200000   0   0   0 # cp
    235      1   1 -0.100000    15.676000000    19.628400000    17.147600000   0   0   0 # cp
    236      1   1 -0.100000    14.710500000    20.324800000    16.482600000   0   0   0 # cp
    237      1   1  0.000000    13.562200000    20.696300000    17.134300000   0   0   0 # cp
    238      1   1 -0.100000    13.433000000    20.384800000    18.446000000   0   0   0 # cp
    239      1   1 -0.100000    14.406500000    19.721000000    19.119300000   0   0   0 # cp
    240      1   1 -0.100000    18.669900000    17.048200000    17.943600000   0   0   0 # cp
    241      1   1 -0.100000    19.212900000    16.311900000    16.902500000   0   0   0 # cp
    242      1   1  0.000000    18.395800000    15.683600000    15.951100000   0   0   0 # cp
    243      1   1 -0.100000    17.046000000    15.652900000    16.229400000   0   0   0 # cp
    244      1   1 -0.100000    16.497200000    16.478600000    17.172500000   0   0   0 # cp
    245      1   1  0.000000    17.302100000    17.267000000    18.044700000   0   0   0 # cp
    246      1   3  0.000000    19.015600000    14.967100000    14.656300000   0   0   0 # c
    247      1   1  0.000000    21.403000000    17.691100000    12.250600000   0   0   0 # cp
    248      1   1 -0.100000    21.462400000    16.329500000    12.010500000   0   0   0 # cp
    249      1   1 -0.100000    20.657700000    15.480300000    12.715700000   0   0   0 # cp
    250      1   1  0.000000    19.842400000    15.961100000    13.745600000   0   0   0 # cp
    251      1   1 -0.100000    19.759100000    17.320100000    13.924600000   0   0   0 # cp
    252      1   1 -0.100000    20.509900000    18.191100000    13.173800000   0   0   0 # cp
    253      1   1  0.000000    17.952800000    14.466600000    13.568100000   0   0   0 # cp
    254      1   1 -0.100000    16.989200000    15.345300000    13.084100000   0   0   0 # cp
    255      1   1 -0.100000    16.020700000    14.941900000    12.187000000   0   0   0 # cp
    256      1   1  0.000000    15.989700000    13.644800000    11.760000000   0   0   0 # cp
    257      1   1 -0.100000    16.988800000    12.784200000    12.164000000   0   0   0 # cp
    258      1   1 -0.100000    17.993000000    13.216600000    12.994000000   0   0   0 # cp
    259      1   1 -0.100000    19.484000000    12.653400000    15.665400000   0   0   0 # cp
    260      1   1 -0.100000    20.320800000    11.610400000    15.869100000   0   0   0 # cp
    261      1   1  0.000000    21.677800000    11.794400000    15.821800000   0   0   0 # cp
    262      1   1 -0.100000    22.189900000    13.069000000    15.676300000   0   0   0 # cp
    263      1   1 -0.100000    21.335200000    14.085000000    15.422900000   0   0   0 # cp
    264      1   1  0.000000    19.975700000    13.877900000    15.271900000   0   0   0 # cp
    265      1   2  0.100000    16.391000000    19.295400000    21.643100000   0   0   0 # h
    266      1   2  0.100000    18.699300000    19.842500000    18.146300000   0   0   0 # h
    267      1   2  0.100000    20.087900000    21.410100000    19.333900000   0   0   0 # h
    268      1   2  0.100000    17.860900000    20.641100000    22.907900000   0   0   0 # h
    269      1   2  0.100000    16.549900000    19.391000000    16.571300000   0   0   0 # h
    270      1   2  0.100000    14.886800000    20.675600000    15.464800000   0   0   0 # h
    271      1   2  0.100000    12.561800000    20.731200000    19.020300000   0   0   0 # h
    272      1   2  0.100000    14.211400000    19.561400000    20.164800000   0   0   0 # h
    273      1   2  0.100000    19.344300000    17.544400000    18.640100000   0   0   0 # h
    274      1   2  0.100000    20.297800000    16.333600000    16.791200000   0   0   0 # h
    275      1   2  0.100000    16.335200000    15.098600000    15.652100000   0   0   0 # h
    276      1   2  0.100000    15.421100000    16.493100000    17.293700000   0   0   0 # h
    277      1   2  0.100000    22.206800000    15.926400000    11.325100000   0   0   0 # h
    278      1   2  0.100000    20.666600000    14.429100000    12.480200000   0   0   0 # h
    279      1   2  0.100000    19.044500000    17.765400000    14.619900000   0   0   0 # h
    280      1   2  0.100000    20.471900000    19.272200000    13.368400000   0   0   0 # h
    281      1   2  0.100000    17.013900000    16.368400000    13.431800000   0   0   0 # h
    282      1   2  0.100000    15.319800000    15.703500000    11.806600000   0   0   0 # h
    283      1   2  0.100000    17.028000000    11.767300000    11.771700000   0   0   0 # h
    284      1   2  0.100000    18.828000000    12.562900000    13.173300000   0   0   0 # h
    285      1   2  0.100000    18.447000000    12.500300000    15.655400000   0   0   0 # h
    286      1   2  0.100000    19.932700000    10.634900000    15.930400000   0   0   0 # h
    287      1   2  0.100000    23.274500000    13.190300000    15.611500000   0   0   0 # h
    288      1   2  0.100000    21.792000000    15.054400000    15.266400000   0   0   0 # h
    289      1   1  0.000000    17.676100000     5.164730000    25.939100000   0   0   0 # cp
    290      1   1 -0.100000    18.583900000     5.041870000    24.935100000   0   0   0 # cp
    291      1   1 -0.100000    19.001000000     6.151740000    24.264100000   0   0   0 # cp
    292      1   1  0.000000    18.462900000     7.387410000    24.526800000   0   0   0 # cp
    293      1   1 -0.100000    17.605200000     7.497390000    25.634800000   0   0   0 # cp
    294      1   1 -0.100000    17.249600000     6.391540000    26.355900000   0   0   0 # cp
    295      1   2  0.100000    18.979500000     4.076380000    24.663500000   0   0   0 # h
    296      1   2  0.100000    19.750000000     6.008850000    23.487600000   0   0   0 # h
    297      1   2  0.100000    17.220500000     8.441010000    25.952400000   0   0   0 # h
    298      1   2  0.100000    16.462000000     6.494290000    27.124300000   0   0   0 # h
    299      1   1 -0.100000    16.384600000     9.363910000    23.313900000   0   0   0 # cp