       N       E                     dE             d eps       ncg     rms          ort
DAV:   1     0.378471448585E+02    0.37847E+02   -0.26335E+02     8   0.115E+02
DAV:   2     0.304317948858E+02   -0.74153E+01   -0.69508E+01     8   0.129E+01
DAV:   3     0.297173863828E+02   -0.71441E+00   -0.71441E+00     8   0.696E+00
DAV:   4     0.297072654810E+02   -0.10121E-01   -0.10121E-01     8   0.902E-01
DAV:   5     0.297072636614E+02   -0.18196E-05   -0.18196E-05     8   0.117E-02
SDA:   6    -0.755778013761E+00   -0.30463E+02   -0.18196E-05     8   0.996E-02 0.000E+00
CGA:   7    -0.759154597837E+00   -0.33766E-02   -0.33778E-02     8   0.994E-03-0.773E-05
CGA:   8    -0.759448862749E+00   -0.29426E-03   -0.29428E-03     8   0.108E-03-0.250E-06
CGA:   9    -0.759484748957E+00   -0.35886E-04   -0.35894E-04     8   0.178E-04-0.734E-07
CGA:  10    -0.759491709754E+00   -0.69608E-05   -0.69638E-05     8   0.436E-05-0.947E-08
CGA:  11    -0.759493736687E+00   -0.20269E-05   -0.20269E-05     8   0.134E-05 0.556E-09
CGA:  12    -0.759494359022E+00   -0.62234E-06   -0.62157E-06     8   0.308E-06 0.302E-08
   1 F= -.75949436E+00 E0= -.75949436E+00  d E =-.759494E+00  mag=     2.0000
       N       E                     dE             d eps       ncg     rms          ort
SDA:   1     0.163428146401E+00    0.92292E+00    0.00000E+00     8   0.361E+01 0.000E+00
CGA:   2    -0.132295651928E+01   -0.14864E+01   -0.14888E+01     8   0.648E+00-0.667E-02
CGA:   3    -0.155431745707E+01   -0.23136E+00   -0.23113E+00     8   0.782E-01 0.813E-03
CGA:   4    -0.158010104549E+01   -0.25784E-01   -0.25782E-01     8   0.110E-01-0.457E-04
CGA:   5    -0.158416334652E+01   -0.40623E-02   -0.40643E-02     8   0.192E-02-0.260E-04
CGA:   6    -0.158497391668E+01   -0.81057E-03   -0.81107E-03     8   0.453E-03-0.426E-05
CGA:   7    -0.158517992377E+01   -0.20601E-03   -0.20598E-03     8   0.108E-03 0.292E-06
CGA:   8    -0.158522800532E+01   -0.48082E-04   -0.48064E-04     8   0.202E-04 0.108E-06
CGA:   9    -0.158523667830E+01   -0.86730E-05   -0.86730E-05     8   0.326E-05-0.227E-08
CGA:  10    -0.158523805668E+01   -0.13784E-05   -0.13783E-05     8   0.490E-06-0.177E-08
CGA:  11    -0.158523826810E+01   -0.21141E-06   -0.21139E-06     8   0.670E-07 0.211E-09
   2 F= -.15852383E+01 E0= -.15852383E+01  d E =-.825744E+00  mag=     2.0000
       N       E                     dE             d eps       ncg     rms          ort
SDA:   1    -0.612305849187E+00    0.97293E+00    0.00000E+00     8   0.265E+01 0.000E+00
CGA:   2    -0.175476393888E+01   -0.11425E+01   -0.11426E+01     8   0.425E+00-0.711E-03
CGA:   3    -0.190658225039E+01   -0.15182E+00   -0.15176E+00     8   0.456E-01 0.591E-03
CGA:   4    -0.192184498904E+01   -0.15263E-01   -0.15263E-01     8   0.569E-02-0.598E-04
CGA:   5    -0.192394543627E+01   -0.21004E-02   -0.21010E-02     8   0.925E-03-0.147E-04
CGA:   6    -0.192435262587E+01   -0.40719E-03   -0.40727E-03     8   0.233E-03-0.134E-05
CGA:   7    -0.192446676549E+01   -0.11414E-03   -0.11407E-03     8   0.572E-04 0.385E-06
CGA:   8    -0.192449250904E+01   -0.25744E-04   -0.25738E-04     8   0.936E-05 0.388E-07
CGA:   9    -0.192449646944E+01   -0.39604E-05   -0.39605E-05     8   0.124E-05-0.261E-08
CGA:  10    -0.192449698968E+01   -0.52024E-06   -0.52026E-06     8   0.158E-06-0.291E-09
   3 F= -.19244970E+01 E0= -.19244970E+01  d E =-.116500E+01  mag=     2.0000
       N       E                     dE             d eps       ncg     rms          ort
SDA:   1     0.258241353918E+01    0.45069E+01    0.00000E+00     8   0.970E+01 0.000E+00
CGA:   2    -0.135946373981E+01   -0.39419E+01   -0.39394E+01     8   0.167E+01-0.323E-01
CGA:   3    -0.203962249338E+01   -0.68016E+00   -0.67953E+00     8   0.283E+00-0.217E-02
CGA:   4    -0.214584906069E+01   -0.10623E+00   -0.10621E+00     8   0.492E-01 0.416E-03
CGA:   5    -0.216606534911E+01   -0.20216E-01   -0.20215E-01     8   0.950E-02-0.657E-04
CGA:   6    -0.217013671079E+01   -0.40714E-02   -0.40723E-02     8   0.183E-02-0.241E-04
CGA:   7    -0.217093099807E+01   -0.79429E-03   -0.79435E-03     8   0.346E-03-0.190E-05
CGA:   8    -0.217108242541E+01   -0.15143E-03   -0.15142E-03     8   0.636E-04 0.162E-07
CGA:   9    -0.217111122449E+01   -0.28799E-04   -0.28797E-04     8   0.116E-04 0.149E-07
CGA:  10    -0.217111632676E+01   -0.51023E-05   -0.51019E-05     8   0.190E-05 0.327E-09
CGA:  11    -0.217111717001E+01   -0.84325E-06   -0.84329E-06     8   0.271E-06-0.213E-09
   4 F= -.21711172E+01 E0= -.21711172E+01  d E =-.141162E+01  mag=     2.0000
       N       E                     dE             d eps       ncg     rms          ort
SDA:   1    -0.172927955833E+01    0.44184E+00    0.00000E+00     8   0.918E+00 0.000E+00
CGA:   2    -0.214547289047E+01   -0.41619E+00   -0.41619E+00     8   0.133E+00-0.127E-03
CGA:   3    -0.219234554623E+01   -0.46873E-01   -0.46890E-01     8   0.113E-01 0.134E-03
CGA:   4    -0.219609434890E+01   -0.37488E-02   -0.37481E-02     8   0.110E-02-0.107E-04
CGA:   5    -0.219649363163E+01   -0.39928E-03   -0.39921E-03     8   0.144E-03-0.223E-05
CGA:   6    -0.219655515069E+01   -0.61519E-04   -0.61532E-04     8   0.318E-04-0.314E-06
CGA:   7    -0.219657190816E+01   -0.16757E-04   -0.16759E-04     8   0.893E-05-0.128E-07
CGA:   8    -0.219657621366E+01   -0.43055E-05   -0.43056E-05     8   0.146E-05-0.218E-08
CGA:   9    -0.219657682844E+01   -0.61478E-06   -0.61480E-06     8   0.153E-06-0.112E-08
   5 F= -.21965768E+01 E0= -.21965768E+01  d E =-.143708E+01  mag=     2.0000
       N       E                     dE             d eps       ncg     rms          ort
SDA:   1    -0.419942544906E+00    0.17766E+01    0.00000E+00     8   0.356E+01 0.000E+00
CGA:   2    -0.199359437098E+01   -0.15737E+01   -0.15735E+01     8   0.550E+00-0.289E-02
CGA:   3    -0.219794338078E+01   -0.20435E+00   -0.20447E+00     8   0.595E-01 0.909E-03
CGA:   4    -0.221888106315E+01   -0.20938E-01   -0.20932E-01     8   0.738E-02-0.153E-03
CGA:   5    -0.222175601229E+01   -0.28749E-02   -0.28746E-02     8   0.129E-02-0.338E-04
CGA:   6    -0.222233943200E+01   -0.58342E-03   -0.58366E-03     8   0.308E-03-0.478E-05
CGA:   7    -0.222248931693E+01   -0.14988E-03   -0.14989E-03     8   0.698E-04-0.202E-06
CGA:   8    -0.222252084741E+01   -0.31530E-04   -0.31531E-04     8   0.113E-04-0.188E-07
CGA:   9    -0.222252575815E+01   -0.49107E-05   -0.49108E-05     8   0.161E-05-0.469E-08
CGA:  10    -0.222252645166E+01   -0.69351E-06   -0.69353E-06     8   0.219E-06-0.767E-09
   6 F= -.22225265E+01 E0= -.22225265E+01  d E =-.146303E+01  mag=     2.0000
       N       E                     dE             d eps       ncg     rms          ort
SDA:   1     0.401421208115E+01    0.62367E+01    0.00000E+00     8   0.121E+02 0.000E+00
CGA:   2    -0.106161849747E+01   -0.50758E+01   -0.50751E+01     8   0.226E+01-0.104E+00
CGA:   3    -0.200889774777E+01   -0.94728E+00   -0.94687E+00     8   0.464E+00 0.321E-02
CGA:   4    -0.218892486831E+01   -0.18003E+00   -0.18031E+00     8   0.903E-01 0.337E-02
CGA:   5    -0.222674632546E+01   -0.37821E-01   -0.37820E-01     8   0.168E-01 0.162E-03
CGA:   6    -0.223372425592E+01   -0.69779E-02   -0.69780E-02     8   0.287E-02-0.322E-04
CGA:   7    -0.223494577515E+01   -0.12215E-02   -0.12216E-02     8   0.527E-03-0.555E-05
CGA:   8    -0.223517482634E+01   -0.22905E-03   -0.22906E-03     8   0.990E-04-0.431E-06
CGA:   9    -0.223521960029E+01   -0.44774E-04   -0.44773E-04     8   0.192E-04 0.513E-08
CGA:  10    -0.223522808293E+01   -0.84826E-05   -0.84826E-05     8   0.341E-05-0.123E-08
CGA:  11    -0.223522958458E+01   -0.15017E-05   -0.15017E-05     8   0.517E-06-0.439E-09
CGA:  12    -0.223522980736E+01   -0.22278E-06   -0.22277E-06     8   0.766E-07 0.563E-09
   7 F= -.22352298E+01 E0= -.22352298E+01  d E =-.147574E+01  mag=     2.0000
