Compiler and run-time data
===========================================================================
RASPA 2.0.35
Compiled as a 64-bits application
Compiler: gcc 5.4.0
Compile Date = Nov 18 2018, Compile Time = 17:01:43

Fri May 14 23:24:12 2021
Simulation started on Friday, May 14.
The start time was 11:24 PM.

Hostname:    The start time was 11:24 PM.
OS type:     The start time was 11:24 PM.
OS release:  The start time was 11:24 PM.
OS version:  The start time was 11:24 PM.

Simulation
===========================================================================
Dimensions: 3
Random number seed: 1621002252
RASPA directory set to: /home/ysh/Research/simulations/
String appended to output-files: 
Number of cycles: 50000
Number of initializing cycles: 10000
Number of equilibration cycles: 0
Print every: 5000
Triclinic boundary condition applied
Timestep: 0.000500
	Degrees of freedom:                        0
	Translational Degrees of freedom:          0
	Rotational Degrees of freedom:             0
	Degrees of freedom Framework:              0


Mutual consistent basic set of units:
======================================
Unit of temperature: Kelvin
Unit of length:      1e-10 [m]
Unit of time:        1e-12 [s]
Unit of mass:        1.66054e-27 [kg]
Unit of charge:      1.60218e-19 [C/particle]

Derived units and their conversion factors:
===========================================
Unit of energy:              1.66054e-23 [J]
Unit of force:               1.66054e-13 [N]
Unit of pressure:            1.66054e+07 [Pa]
Unit of velocity:            100 [m/s]
Unit of acceleration:        1e-08 [m^2/s]
Unit of diffusion:           1e-08 [m^2/s]
Unit of dipole moment:       1.60218e-29 [C.m]
Unit of electric potential:  0.000103643 [V]
Unit of electric field:      1.03643e+06 [V]
Unit of polarizability:      1.54587e-35 [-]
Unit of Coulomb potential:   167101.0800066561  [K]
Unit of dielectric constant: 0.0000154587       [s^2 C^2/(kg m^3)]
Unit of wave vectors:        5.3088374589       [cm^1]
Boltzmann constant:          0.8314464919       [-]

Internal conversion factors:
===========================================
Energy to Kelvin:                                    1.2027242847
FH correction factor                                 2.0211930949
Heat capacity conversion factor:                    10.0000088723
From Debye to internal units:                        4.8032067991
Isothermal compressibility conversion factor:        0.0000000602

Energy conversion factors:
===========================================
From mdyne/A to kcal/mol/A^2:           143.933
From mdyne/A to kj/mol/A^2:             602.214
From mdyne/A to K/A^2:                  72429.7
From mdyne A/rad^2 to kcal/mol/deg^2:   0.0438444


Properties computed
===========================================================================
Movies: yes
	Movie snapshots are appended to file every 5000 cycles
Radial Distribution Function: no
Number of molecules GCMC histogram: no
Histogram of the molecule positions: no
Free energy profiles: no
Pore Size Distribution Function: no
End-to-end distance: no
Histogram of the energy of the system: no
Compute thermodynamic factors: no
Framework spacing histograms: no
Residence times histograms: no
Distance histograms: no
Bend Angle histograms: no
Dihedral angle histograms: no
Angle between planes histograms: no
Molecule properties: no
Infra-red spectra: no
Mean-squared displacement using modified order-N algorithm: no
Velocity-autocorrelation function modified order-N algorithm: no
Rotational velocity-autocorrelation function modified order-N algorithm: no
Molecular orientation-autocorrelation function modified order-N algorithm: no
Bond orientation-autocorrelation function modified order-N algorithm: no
Mean-squared displacement (conventional algorithm): no
Velocity-autocorrelation function (conventional algorithm): no
3D density grid for adsorbates: no
Compute cation an/or adsorption sites: no
dcTST snapshots: no
Compute pressure and stress: no


VTK
===========================================================================
VTK fractional-range position framework atoms: [-0.001000,1.001000] [-0.001000,1.001000] [-0.001000,1.001000]
VTK fractional-range position framework bonds: [-0.151000,1.151000] [-0.151000,1.151000] [-0.151000,1.151000]
VTK fractional-range com-position adsorbate molecules: [-0.101000,1.101000] [-0.101000,1.101000] [-0.101000,1.101000]
VTK fractional-range com-position cation molecules: [-0.101000,1.101000] [-0.101000,1.101000] [-0.101000,1.101000]
	3D free energy grid made for the full simulation-cell


Thermo/Baro-stat NHC parameters
===========================================================================
External temperature: 220 [K]
Beta: 0.00546692 [energy unit]
External Pressure: 3000 [Pa]


Thermostat chain-length: 3
Timescale parameter for thermostat: 0.150000 [ps]
Barostat chain-length:   3
Timescale parameter for barostat:   0.150000 [ps]

Number of Yoshida-Suzuki decomposition steps: 5
Number of respa steps: 5


Method and settings for electrostatics
===============================================================================
Dielectric constant of the medium : 1.000000
Charge from charge-equilibration: no
Ewald summation is used (exact solution of a periodic system)
Relative precision                : 1e-06
Alpha convergence parameter       : 0.265058
kvec (x,y,z)                      : 13 13 13


CFC-RXMC parameters
===========================================================================
Number of reactions: 0


Rattle parameters
===========================================================================
Distance constraint type: r^2-r^2_0
Bend angle constraint type: theta-theta_0
Dihedral angle constraint type: phi-phi_0
Inversion-bend angle constraint type: chi-chi_0
Out-of-plane distance constraint type: r-r_0


Spectra parameters
===========================================================================
Compute normal modes: no


Minimization parameters
===========================================================================
Generalized coordinates are: Cartesian center-of-mass, elements of the orientational matrix p1,p2,p3 and strain
Potential derivatives are evaluated: analytically
Translation of the system is removed from the generalized Hessian: no
Rotation of the system is removed from the generalized Hessian: no
Maximum step-length: 0.3
Convergence factor: 1
Maximum number of minimization steps: 10000
Use gradients in the line-minimizations: yes
RMS gradient tolerance: 1e-06
Maximum gradient tolerance: 1e-06

Distance constraints: 0
Angle constraints: 0
Dihedral constraints: 0

Improper dihedral constraints: 0

Inversion-bend constraints: 0

Out-of-plane constraints: 0

Harmonic distance constraints: 0
Harmonic angle constraints: 0
Harmonic dihedral constraints: 0

Dihedral mid-point measurements: 0

All framework atoms are fixed

Fixed adsorbate atoms:  
Fixed adsorbate groups (center-of-mass):  
Fixed adsorbate groups (orientation):  

Fixed cation atoms:  
Fixed cation groups (center-of-mass):  
Fixed cation groups (orientation):  


dcTST parameters
===========================================================================
Free energy profiles computed: no
Free energy profiles written every 5000 cycles
Free energy mapping: mapped to a,b,c-coordinates
BarrierPosition:       0.0000000000       0.0000000000       0.0000000000
BarrierNormal:         0.0000000000       0.0000000000       0.0000000000
Start with a molecule on top of the barrier: no
Maximum distance to barrier (e.g. distance to minumum free energy):       0.0000000000 [A]
Maximum trajectory time:      10.0000000000 [ps]
Each configuration is used with 5 different initial velocities


Cbmc parameters
===========================================================================
Biasing method: using only the VDW part
Number of trial positions:                                       10
Number of trial positions (reinsertion):                         10
Number of trial positions (partial reinsertion):                 10
Number of trial positions (identity-change):                     10
Number of trial positions (Gibbs particle transfer):             10
Number of trial positions (insertion/deletion):                  10
Number of trial positions (Widom insertion):                     10
Number of trial positions coupled Torsion-selection:             100
Number of trial positions first bead:                            10
Number of trial positions first bead (reinsertion):              10
Number of trial positions first bead (partial reinsertion):      10
Number of trial positions first bead (identity-change):          10
Number of trial positions first bead (Gibbs particle transfer):  10
Number of trial positions first bead (insertion/deletion):       10
Number of trial positions first bead (Widom insertion):          10
Number of trial moves per open bead:                             150
Target acceptance ratio small-mc scheme:                         0.400000
Energy overlap criteria:                                         1e+07
Minimal Rosenbluth factor:                                       1e-150


Pseudo atoms: 23
===========================================================================
Pseudo Atom[   0] Name UNIT     Oxidation:          Element: H    pdb-name: H    Scat. Types:   1   1 Mass=1.000000000  B-factor:0.000   
                 Charge=1.000000000          Polarization=0.000000000  [A^3] (considered a charged atom and no polarization)  Interactions: yes
                 Anisotropic factor:    0.000 [-] (Absolute), Radius:    1.000 [A], Framework-atom:  no
Pseudo Atom[   1] Name Al_      Oxidation: +0       Element: Al   pdb-name: Al   Scat. Types:  14  13 Mass=26.982000000 B-factor:1.000   
                 Charge=0.000000000          Polarization=0.000000000  [A^3] (considered a chargeless atom and no polarization)  Interactions: yes
                 Anisotropic factor:    0.000 [-] (Relative), Radius:    1.000 [A], Framework-atom:  no
Pseudo Atom[   2] Name Cd_      Oxidation: +0       Element: Cd   pdb-name: Cd   Scat. Types:  49  48 Mass=112.411000000 B-factor:1.000   
                 Charge=0.000000000          Polarization=0.000000000  [A^3] (considered a chargeless atom and no polarization)  Interactions: yes
                 Anisotropic factor:    0.000 [-] (Relative), Radius:    1.000 [A], Framework-atom:  no
Pseudo Atom[   3] Name Mg_      Oxidation: +0       Element: Mg   pdb-name: Mg   Scat. Types:  13  12 Mass=24.305000000 B-factor:1.000   
                 Charge=0.000000000          Polarization=0.000000000  [A^3] (considered a chargeless atom and no polarization)  Interactions: yes
                 Anisotropic factor:    0.000 [-] (Relative), Radius:    1.000 [A], Framework-atom:  no
Pseudo Atom[   4] Name C_       Oxidation: +0       Element: C    pdb-name: C    Scat. Types:   7   6 Mass=12.011000000 B-factor:1.000   
                 Charge=0.000000000          Polarization=0.000000000  [A^3] (considered a chargeless atom and no polarization)  Interactions: yes
                 Anisotropic factor:    0.000 [-] (Relative), Radius:    1.000 [A], Framework-atom:  no
Pseudo Atom[   5] Name Cl_      Oxidation: +0       Element: Cl   pdb-name: Cl   Scat. Types:  18  17 Mass=35.453000000 B-factor:1.000   
                 Charge=0.000000000          Polarization=0.000000000  [A^3] (considered a chargeless atom and no polarization)  Interactions: yes
                 Anisotropic factor:    0.000 [-] (Relative), Radius:    1.000 [A], Framework-atom:  no
Pseudo Atom[   6] Name Co_      Oxidation: +0       Element: Co   pdb-name: Co   Scat. Types:  28  27 Mass=58.933000000 B-factor:1.000   
                 Charge=0.000000000          Polarization=0.000000000  [A^3] (considered a chargeless atom and no polarization)  Interactions: yes
                 Anisotropic factor:    0.000 [-] (Relative), Radius:    1.000 [A], Framework-atom:  no
Pseudo Atom[   7] Name Cu_      Oxidation: +0       Element: Cu   pdb-name: Cu   Scat. Types:  30  29 Mass=63.546000000 B-factor:1.000   
                 Charge=0.000000000          Polarization=0.000000000  [A^3] (considered a chargeless atom and no polarization)  Interactions: yes
                 Anisotropic factor:    0.000 [-] (Relative), Radius:    1.000 [A], Framework-atom:  no
Pseudo Atom[   8] Name Fe_      Oxidation: +0       Element: Fe   pdb-name: Fe   Scat. Types:  27  26 Mass=55.845000000 B-factor:1.000   
                 Charge=0.000000000          Polarization=0.000000000  [A^3] (considered a chargeless atom and no polarization)  Interactions: yes
                 Anisotropic factor:    0.000 [-] (Relative), Radius:    1.000 [A], Framework-atom:  no
Pseudo Atom[   9] Name H_       Oxidation: +0       Element: H    pdb-name: H    Scat. Types:   1   1 Mass=1.008000000  B-factor:1.000   
                 Charge=0.000000000          Polarization=0.000000000  [A^3] (considered a chargeless atom and no polarization)  Interactions: yes
                 Anisotropic factor:    0.000 [-] (Relative), Radius:    1.000 [A], Framework-atom:  no
Pseudo Atom[  10] Name He       Oxidation: +0       Element: He   pdb-name: He   Scat. Types:   3   2 Mass=4.003000000  B-factor:1.000   
                 Charge=0.000000000          Polarization=0.000000000  [A^3] (considered a chargeless atom and no polarization)  Interactions: yes
                 Anisotropic factor:    0.000 [-] (Relative), Radius:    1.000 [A], Framework-atom:  no
Pseudo Atom[  11] Name In_      Oxidation: +0       Element: In   pdb-name: In   Scat. Types:  50  49 Mass=114.818000000 B-factor:1.000   
                 Charge=0.000000000          Polarization=0.000000000  [A^3] (considered a chargeless atom and no polarization)  Interactions: yes
                 Anisotropic factor:    0.000 [-] (Relative), Radius:    1.000 [A], Framework-atom:  no
Pseudo Atom[  12] Name N_       Oxidation: +0       Element: N    pdb-name: N    Scat. Types:   8   7 Mass=14.007000000 B-factor:1.000   
                 Charge=0.000000000          Polarization=0.000000000  [A^3] (considered a chargeless atom and no polarization)  Interactions: yes
                 Anisotropic factor:    0.000 [-] (Relative), Radius:    1.000 [A], Framework-atom:  no
Pseudo Atom[  13] Name Ni_      Oxidation: +0       Element: Ni   pdb-name: Ni   Scat. Types:  29  28 Mass=58.693000000 B-factor:1.000   
                 Charge=0.000000000          Polarization=0.000000000  [A^3] (considered a chargeless atom and no polarization)  Interactions: yes
                 Anisotropic factor:    0.000 [-] (Relative), Radius:    1.000 [A], Framework-atom:  no
Pseudo Atom[  14] Name O_       Oxidation: +0       Element: O    pdb-name: O    Scat. Types:   9   8 Mass=15.999000000 B-factor:1.000   
                 Charge=0.000000000          Polarization=0.000000000  [A^3] (considered a chargeless atom and no polarization)  Interactions: yes
                 Anisotropic factor:    0.000 [-] (Relative), Radius:    1.000 [A], Framework-atom:  no
Pseudo Atom[  15] Name Zn_      Oxidation: +0       Element: Zn   pdb-name: Zn   Scat. Types:  31  30 Mass=65.390000000 B-factor:1.000   
                 Charge=0.000000000          Polarization=0.000000000  [A^3] (considered a chargeless atom and no polarization)  Interactions: yes
                 Anisotropic factor:    0.000 [-] (Relative), Radius:    1.000 [A], Framework-atom:  no
Pseudo Atom[  16] Name N_n2     Oxidation: +0       Element: N    pdb-name: N    Scat. Types:   8   7 Mass=14.006700000 B-factor:1.000   
                 Charge=-0.482000000         Polarization=0.000000000  [A^3] (considered a charged atom and no polarization)  Interactions: yes
                 Anisotropic factor:    0.000 [-] (Relative), Radius:    0.700 [A], Framework-atom:  no
Pseudo Atom[  17] Name N_com    Oxidation: +0       Element: N    pdb-name: N    Scat. Types:   8   7 Mass=0.000000000  B-factor:1.000   
                 Charge=0.964000000          Polarization=0.000000000  [A^3] (considered a charged atom and no polarization)  Interactions: yes
                 Anisotropic factor:    0.000 [-] (Relative), Radius:    0.700 [A], Framework-atom:  no
Pseudo Atom[  18] Name CH4_sp3  Oxidation: +0       Element: C    pdb-name: C    Scat. Types:   7   6 Mass=16.042460000 B-factor:1.000   
                 Charge=0.000000000          Polarization=0.000000000  [A^3] (considered a chargeless atom and no polarization)  Interactions: yes
                 Anisotropic factor:    0.000 [-] (Absolute), Radius:    1.000 [A], Framework-atom:  no
Pseudo Atom[  19] Name Cu       Oxidation:          Element: Cu   pdb-name: Cu   Scat. Types:  30  29 Mass=63.546039732 B-factor:0.000   
                 Charge=0.000000000  (-na-)  Polarization=6.200000000  [A^3] (considered a chargeless atom and no polarization)  Interactions: yes
                 Anisotropic factor:    0.000 [-] (Absolute), Radius:    1.220 [A], Framework-atom: yes (charge definition not found)
Pseudo Atom[  20] Name H        Oxidation:          Element: H    pdb-name: H    Scat. Types:   1   1 Mass=1.007940754  B-factor:0.000   
                 Charge=0.000000000  (-na-)  Polarization=0.666793000  [A^3] (considered a chargeless atom and no polarization)  Interactions: yes
                 Anisotropic factor:    0.000 [-] (Absolute), Radius:    0.320 [A], Framework-atom: yes (charge definition not found)
Pseudo Atom[  21] Name C        Oxidation:          Element: C    pdb-name: C    Scat. Types:   7   6 Mass=12.010735897 B-factor:0.000   
                 Charge=0.000000000  (-na-)  Polarization=1.760000000  [A^3] (considered a chargeless atom and no polarization)  Interactions: yes
                 Anisotropic factor:    0.000 [-] (Absolute), Radius:    0.750 [A], Framework-atom: yes (charge definition not found)
Pseudo Atom[  22] Name O        Oxidation:          Element: O    pdb-name: O    Scat. Types:   9   8 Mass=15.999404927 B-factor:0.000   
                 Charge=0.000000000  (-na-)  Polarization=0.802000000  [A^3] (considered a chargeless atom and no polarization)  Interactions: yes
                 Anisotropic factor:    0.000 [-] (Absolute), Radius:    0.640 [A], Framework-atom: yes (charge definition not found)


Forcefield: DFF_BOG_ysh
===========================================================================
Minimal distance: 1
CutOff VDW : 12.800000 (163.840000)
CutOff VDW switching on: 11.520000 (132.710400)
CutOff charge-charge : 12.000000 (144.000000)
CutOff charge-charge switching on: 7.800000 (60.840000)
CutOff charge-bonddipole : 12.000000 (144.000000)
CutOff charge-bondipole switching on: 8.400000 (70.560000)
CutOff bonddipole-bonddipole : 12.000000 (144.000000)
CutOff bonddipole-bondipole switching on: 9.000000 (81.000000)
Polarization is neglected
TailCorrections are used
All potentials are unshifted !!!!!!

General mixing rule: Lorentz-Berthelot mixing rules are used FIRST for cross terms
0 cross terms are overwritten using the individual mixing rules from the file 'force_field_mixing_rules.def'
and then 0 terms are overwritten using the specific interactions from the file 'force_field.def'

The force field and all the interactions:
    Al_ -     Al_ [LENNARD_JONES] p_0/k_B: 156.00000 [K], p_1: 3.91000 [A], shift/k_B:   0.00000000 [K], tailcorrection: yes
    Al_ -     Cd_ [LENNARD_JONES] p_0/k_B:  86.40694 [K], p_1: 3.69000 [A], shift/k_B:   0.00000000 [K], tailcorrection: yes
    Al_ -     Mg_ [LENNARD_JONES] p_0/k_B:  93.34131 [K], p_1: 3.30000 [A], shift/k_B:   0.00000000 [K], tailcorrection: yes
    Al_ -      C_ [LENNARD_JONES] p_0/k_B:  86.40694 [K], p_1: 3.69000 [A], shift/k_B:   0.00000000 [K], tailcorrection: yes
    Al_ -     Cl_ [LENNARD_JONES] p_0/k_B: 149.12867 [K], p_1: 3.71500 [A], shift/k_B:   0.00000000 [K], tailcorrection: yes
    Al_ -     Co_ [LENNARD_JONES] p_0/k_B:  33.16323 [K], p_1: 3.23500 [A], shift/k_B:   0.00000000 [K], tailcorrection: yes
    Al_ -     Cu_ [LENNARD_JONES] p_0/k_B:  19.82725 [K], p_1: 3.51000 [A], shift/k_B:   0.00000000 [K], tailcorrection: yes
    Al_ -     Fe_ [LENNARD_JONES] p_0/k_B:  65.70854 [K], p_1: 3.97500 [A], shift/k_B:   0.00000000 [K], tailcorrection: yes
    Al_ -      H_ [LENNARD_JONES] p_0/k_B:  34.54562 [K], p_1: 3.38000 [A], shift/k_B:   0.00000000 [K], tailcorrection: yes
    Al_ -      He [LENNARD_JONES] p_0/k_B:  41.23591 [K], p_1: 3.27500 [A], shift/k_B:   0.00000000 [K], tailcorrection: yes
    Al_ -     In_ [LENNARD_JONES] p_0/k_B: 207.78864 [K], p_1: 4.00000 [A], shift/k_B:   0.00000000 [K], tailcorrection: yes
    Al_ -      N_ [LENNARD_JONES] p_0/k_B:  77.94998 [K], p_1: 3.58500 [A], shift/k_B:   0.00000000 [K], tailcorrection: yes
    Al_ -     Ni_ [LENNARD_JONES] p_0/k_B:  34.31909 [K], p_1: 3.21500 [A], shift/k_B:   0.00000000 [K], tailcorrection: yes
    Al_ -      O_ [LENNARD_JONES] p_0/k_B:  86.67733 [K], p_1: 3.47000 [A], shift/k_B:   0.00000000 [K], tailcorrection: yes
    Al_ -     Zn_ [LENNARD_JONES] p_0/k_B:  65.70854 [K], p_1: 3.97500 [A], shift/k_B:   0.00000000 [K], tailcorrection: yes
    Al_ -    N_n2 [LENNARD_JONES] p_0/k_B:  74.93998 [K], p_1: 3.61000 [A], shift/k_B:   0.00000000 [K], tailcorrection: yes
    Al_ -   N_com [LENNARD_JONES] p_0/k_B:   0.00000 [K], p_1: 1.95500 [A], shift/k_B:   0.00000000 [K], tailcorrection: yes
    Al_ - CH4_sp3 [LENNARD_JONES] p_0/k_B: 151.94736 [K], p_1: 3.82000 [A], shift/k_B:   0.00000000 [K], tailcorrection: yes
    Al_ -      Cu [LENNARD_JONES] p_0/k_B:  19.82725 [K], p_1: 3.51000 [A], shift/k_B:   0.00000000 [K], tailcorrection: yes
    Al_ -       H [LENNARD_JONES] p_0/k_B:  34.54562 [K], p_1: 3.38000 [A], shift/k_B:   0.00000000 [K], tailcorrection: yes
    Al_ -       C [LENNARD_JONES] p_0/k_B:  86.40694 [K], p_1: 3.69000 [A], shift/k_B:   0.00000000 [K], tailcorrection: yes
    Al_ -       O [LENNARD_JONES] p_0/k_B:  86.67733 [K], p_1: 3.47000 [A], shift/k_B:   0.00000000 [K], tailcorrection: yes
    Cd_ -     Cd_ [LENNARD_JONES] p_0/k_B:  47.86000 [K], p_1: 3.47000 [A], shift/k_B:   0.00000000 [K], tailcorrection: yes
    Cd_ -     Mg_ [LENNARD_JONES] p_0/k_B:  51.70088 [K], p_1: 3.08000 [A], shift/k_B:   0.00000000 [K], tailcorrection: yes
    Cd_ -      C_ [LENNARD_JONES] p_0/k_B:  47.86000 [K], p_1: 3.47000 [A], shift/k_B:   0.00000000 [K], tailcorrection: yes
    Cd_ -     Cl_ [LENNARD_JONES] p_0/k_B:  82.60098 [K], p_1: 3.49500 [A], shift/k_B:   0.00000000 [K], tailcorrection: yes
    Cd_ -     Co_ [LENNARD_JONES] p_0/k_B:  18.36881 [K], p_1: 3.01500 [A], shift/k_B:   0.00000000 [K], tailcorrection: yes
    Cd_ -     Cu_ [LENNARD_JONES] p_0/k_B:  10.98213 [K], p_1: 3.29000 [A], shift/k_B:   0.00000000 [K], tailcorrection: yes
    Cd_ -     Fe_ [LENNARD_JONES] p_0/k_B:  36.39535 [K], p_1: 3.75500 [A], shift/k_B:   0.00000000 [K], tailcorrection: yes
    Cd_ -      H_ [LENNARD_JONES] p_0/k_B:  19.13450 [K], p_1: 3.16000 [A], shift/k_B:   0.00000000 [K], tailcorrection: yes
    Cd_ -      He [LENNARD_JONES] p_0/k_B:  22.84018 [K], p_1: 3.05500 [A], shift/k_B:   0.00000000 [K], tailcorrection: yes
    Cd_ -     In_ [LENNARD_JONES] p_0/k_B: 115.09219 [K], p_1: 3.78000 [A], shift/k_B:   0.00000000 [K], tailcorrection: yes
    Cd_ -      N_ [LENNARD_JONES] p_0/k_B:  43.17577 [K], p_1: 3.36500 [A], shift/k_B:   0.00000000 [K], tailcorrection: yes
    Cd_ -     Ni_ [LENNARD_JONES] p_0/k_B:  19.00902 [K], p_1: 2.99500 [A], shift/k_B:   0.00000000 [K], tailcorrection: yes
    Cd_ -      O_ [LENNARD_JONES] p_0/k_B:  48.00977 [K], p_1: 3.25000 [A], shift/k_B:   0.00000000 [K], tailcorrection: yes
    Cd_ -     Zn_ [LENNARD_JONES] p_0/k_B:  36.39535 [K], p_1: 3.75500 [A], shift/k_B:   0.00000000 [K], tailcorrection: yes
    Cd_ -    N_n2 [LENNARD_JONES] p_0/k_B:  41.50855 [K], p_1: 3.39000 [A], shift/k_B:   0.00000000 [K], tailcorrection: yes
    Cd_ -   N_com [LENNARD_JONES] p_0/k_B:   0.00000 [K], p_1: 1.73500 [A], shift/k_B:   0.00000000 [K], tailcorrection: yes
    Cd_ - CH4_sp3 [LENNARD_JONES] p_0/k_B:  84.16222 [K], p_1: 3.60000 [A], shift/k_B:   0.00000000 [K], tailcorrection: yes
    Cd_ -      Cu [LENNARD_JONES] p_0/k_B:  10.98213 [K], p_1: 3.29000 [A], shift/k_B:   0.00000000 [K], tailcorrection: yes
    Cd_ -       H [LENNARD_JONES] p_0/k_B:  19.13450 [K], p_1: 3.16000 [A], shift/k_B:   0.00000000 [K], tailcorrection: yes
    Cd_ -       C [LENNARD_JONES] p_0/k_B:  47.86000 [K], p_1: 3.47000 [A], shift/k_B:   0.00000000 [K], tailcorrection: yes
    Cd_ -       O [LENNARD_JONES] p_0/k_B:  48.00977 [K], p_1: 3.25000 [A], shift/k_B:   0.00000000 [K], tailcorrection: yes
    Mg_ -     Mg_ [LENNARD_JONES] p_0/k_B:  55.85000 [K], p_1: 2.69000 [A], shift/k_B:   0.00000000 [K], tailcorrection: yes
    Mg_ -      C_ [LENNARD_JONES] p_0/k_B:  51.70088 [K], p_1: 3.08000 [A], shift/k_B:   0.00000000 [K], tailcorrection: yes
    Mg_ -     Cl_ [LENNARD_JONES] p_0/k_B:  89.22991 [K], p_1: 3.10500 [A], shift/k_B:   0.00000000 [K], tailcorrection: yes
    Mg_ -     Co_ [LENNARD_JONES] p_0/k_B:  19.84295 [K], p_1: 2.62500 [A], shift/k_B:   0.00000000 [K], tailcorrection: yes
    Mg_ -     Cu_ [LENNARD_JONES] p_0/k_B:  11.86347 [K], p_1: 2.90000 [A], shift/k_B:   0.00000000 [K], tailcorrection: yes
    Mg_ -     Fe_ [LENNARD_JONES] p_0/k_B:  39.31616 [K], p_1: 3.36500 [A], shift/k_B:   0.00000000 [K], tailcorrection: yes
    Mg_ -      H_ [LENNARD_JONES] p_0/k_B:  20.67009 [K], p_1: 2.77000 [A], shift/k_B:   0.00000000 [K], tailcorrection: yes
    Mg_ -      He [LENNARD_JONES] p_0/k_B:  24.67316 [K], p_1: 2.66500 [A], shift/k_B:   0.00000000 [K], tailcorrection: yes
    Mg_ -     In_ [LENNARD_JONES] p_0/k_B: 124.32861 [K], p_1: 3.39000 [A], shift/k_B:   0.00000000 [K], tailcorrection: yes
    Mg_ -      N_ [LENNARD_JONES] p_0/k_B:  46.64073 [K], p_1: 2.97500 [A], shift/k_B:   0.00000000 [K], tailcorrection: yes
    Mg_ -     Ni_ [LENNARD_JONES] p_0/k_B:  20.53454 [K], p_1: 2.60500 [A], shift/k_B:   0.00000000 [K], tailcorrection: yes
    Mg_ -      O_ [LENNARD_JONES] p_0/k_B:  51.86266 [K], p_1: 2.86000 [A], shift/k_B:   0.00000000 [K], tailcorrection: yes
    Mg_ -     Zn_ [LENNARD_JONES] p_0/k_B:  39.31616 [K], p_1: 3.36500 [A], shift/k_B:   0.00000000 [K], tailcorrection: yes
    Mg_ -    N_n2 [LENNARD_JONES] p_0/k_B:  44.83971 [K], p_1: 3.00000 [A], shift/k_B:   0.00000000 [K], tailcorrection: yes
    Mg_ -   N_com [LENNARD_JONES] p_0/k_B:   0.00000 [K], p_1: 1.34500 [A], shift/k_B:   0.00000000 [K], tailcorrection: yes
    Mg_ - CH4_sp3 [LENNARD_JONES] p_0/k_B:  90.91645 [K], p_1: 3.21000 [A], shift/k_B:   0.00000000 [K], tailcorrection: yes
    Mg_ -      Cu [LENNARD_JONES] p_0/k_B:  11.86347 [K], p_1: 2.90000 [A], shift/k_B:   0.00000000 [K], tailcorrection: yes
    Mg_ -       H [LENNARD_JONES] p_0/k_B:  20.67009 [K], p_1: 2.77000 [A], shift/k_B:   0.00000000 [K], tailcorrection: yes
    Mg_ -       C [LENNARD_JONES] p_0/k_B:  51.70088 [K], p_1: 3.08000 [A], shift/k_B:   0.00000000 [K], tailcorrection: yes
    Mg_ -       O [LENNARD_JONES] p_0/k_B:  51.86266 [K], p_1: 2.86000 [A], shift/k_B:   0.00000000 [K], tailcorrection: yes
     C_ -      C_ [LENNARD_JONES] p_0/k_B:  47.86000 [K], p_1: 3.47000 [A], shift/k_B:   0.00000000 [K], tailcorrection: yes
     C_ -     Cl_ [LENNARD_JONES] p_0/k_B:  82.60098 [K], p_1: 3.49500 [A], shift/k_B:   0.00000000 [K], tailcorrection: yes
     C_ -     Co_ [LENNARD_JONES] p_0/k_B:  18.36881 [K], p_1: 3.01500 [A], shift/k_B:   0.00000000 [K], tailcorrection: yes
     C_ -     Cu_ [LENNARD_JONES] p_0/k_B:  10.98213 [K], p_1: 3.29000 [A], shift/k_B:   0.00000000 [K], tailcorrection: yes
     C_ -     Fe_ [LENNARD_JONES] p_0/k_B:  36.39535 [K], p_1: 3.75500 [A], shift/k_B:   0.00000000 [K], tailcorrection: yes
     C_ -      H_ [LENNARD_JONES] p_0/k_B:  19.13450 [K], p_1: 3.16000 [A], shift/k_B:   0.00000000 [K], tailcorrection: yes
     C_ -      He [LENNARD_JONES] p_0/k_B:  22.84018 [K], p_1: 3.05500 [A], shift/k_B:   0.00000000 [K], tailcorrection: yes
     C_ -     In_ [LENNARD_JONES] p_0/k_B: 115.09219 [K], p_1: 3.78000 [A], shift/k_B:   0.00000000 [K], tailcorrection: yes
     C_ -      N_ [LENNARD_JONES] p_0/k_B:  43.17577 [K], p_1: 3.36500 [A], shift/k_B:   0.00000000 [K], tailcorrection: yes
     C_ -     Ni_ [LENNARD_JONES] p_0/k_B:  19.00902 [K], p_1: 2.99500 [A], shift/k_B:   0.00000000 [K], tailcorrection: yes
     C_ -      O_ [LENNARD_JONES] p_0/k_B:  48.00977 [K], p_1: 3.25000 [A], shift/k_B:   0.00000000 [K], tailcorrection: yes
     C_ -     Zn_ [LENNARD_JONES] p_0/k_B:  36.39535 [K], p_1: 3.75500 [A], shift/k_B:   0.00000000 [K], tailcorrection: yes
     C_ -    N_n2 [LENNARD_JONES] p_0/k_B:  41.50855 [K], p_1: 3.39000 [A], shift/k_B:   0.00000000 [K], tailcorrection: yes
     C_ -   N_com [LENNARD_JONES] p_0/k_B:   0.00000 [K], p_1: 1.73500 [A], shift/k_B:   0.00000000 [K], tailcorrection: yes
     C_ - CH4_sp3 [LENNARD_JONES] p_0/k_B:  84.16222 [K], p_1: 3.60000 [A], shift/k_B:   0.00000000 [K], tailcorrection: yes
     C_ -      Cu [LENNARD_JONES] p_0/k_B:  10.98213 [K], p_1: 3.29000 [A], shift/k_B:   0.00000000 [K], tailcorrection: yes
     C_ -       H [LENNARD_JONES] p_0/k_B:  19.13450 [K], p_1: 3.16000 [A], shift/k_B:   0.00000000 [K], tailcorrection: yes
     C_ -       C [LENNARD_JONES] p_0/k_B:  47.86000 [K], p_1: 3.47000 [A], shift/k_B:   0.00000000 [K], tailcorrection: yes
     C_ -       O [LENNARD_JONES] p_0/k_B:  48.00977 [K], p_1: 3.25000 [A], shift/k_B:   0.00000000 [K], tailcorrection: yes
    Cl_ -     Cl_ [LENNARD_JONES] p_0/k_B: 142.56000 [K], p_1: 3.52000 [A], shift/k_B:   0.00000000 [K], tailcorrection: yes
    Cl_ -     Co_ [LENNARD_JONES] p_0/k_B:  31.70249 [K], p_1: 3.04000 [A], shift/k_B:   0.00000000 [K], tailcorrection: yes
    Cl_ -     Cu_ [LENNARD_JONES] p_0/k_B:  18.95392 [K], p_1: 3.31500 [A], shift/k_B:   0.00000000 [K], tailcorrection: yes
    Cl_ -     Fe_ [LENNARD_JONES] p_0/k_B:  62.81427 [K], p_1: 3.78000 [A], shift/k_B:   0.00000000 [K], tailcorrection: yes
    Cl_ -      H_ [LENNARD_JONES] p_0/k_B:  33.02399 [K], p_1: 3.18500 [A], shift/k_B:   0.00000000 [K], tailcorrection: yes
    Cl_ -      He [LENNARD_JONES] p_0/k_B:  39.41959 [K], p_1: 3.08000 [A], shift/k_B:   0.00000000 [K], tailcorrection: yes
    Cl_ -     In_ [LENNARD_JONES] p_0/k_B: 198.63618 [K], p_1: 3.80500 [A], shift/k_B:   0.00000000 [K], tailcorrection: yes
    Cl_ -      N_ [LENNARD_JONES] p_0/k_B:  74.51652 [K], p_1: 3.39000 [A], shift/k_B:   0.00000000 [K], tailcorrection: yes
    Cl_ -     Ni_ [LENNARD_JONES] p_0/k_B:  32.80744 [K], p_1: 3.02000 [A], shift/k_B:   0.00000000 [K], tailcorrection: yes
    Cl_ -      O_ [LENNARD_JONES] p_0/k_B:  82.85946 [K], p_1: 3.27500 [A], shift/k_B:   0.00000000 [K], tailcorrection: yes
    Cl_ -     Zn_ [LENNARD_JONES] p_0/k_B:  62.81427 [K], p_1: 3.78000 [A], shift/k_B:   0.00000000 [K], tailcorrection: yes
    Cl_ -    N_n2 [LENNARD_JONES] p_0/k_B:  71.63910 [K], p_1: 3.41500 [A], shift/k_B:   0.00000000 [K], tailcorrection: yes
    Cl_ -   N_com [LENNARD_JONES] p_0/k_B:   0.00000 [K], p_1: 1.76000 [A], shift/k_B:   0.00000000 [K], tailcorrection: yes
    Cl_ - CH4_sp3 [LENNARD_JONES] p_0/k_B: 145.25454 [K], p_1: 3.62500 [A], shift/k_B:   0.00000000 [K], tailcorrection: yes
    Cl_ -      Cu [LENNARD_JONES] p_0/k_B:  18.95392 [K], p_1: 3.31500 [A], shift/k_B:   0.00000000 [K], tailcorrection: yes
    Cl_ -       H [LENNARD_JONES] p_0/k_B:  33.02399 [K], p_1: 3.18500 [A], shift/k_B:   0.00000000 [K], tailcorrection: yes
    Cl_ -       C [LENNARD_JONES] p_0/k_B:  82.60098 [K], p_1: 3.49500 [A], shift/k_B:   0.00000000 [K], tailcorrection: yes
    Cl_ -       O [LENNARD_JONES] p_0/k_B:  82.85946 [K], p_1: 3.27500 [A], shift/k_B:   0.00000000 [K], tailcorrection: yes
    Co_ -     Co_ [LENNARD_JONES] p_0/k_B:   7.05000 [K], p_1: 2.56000 [A], shift/k_B:   0.00000000 [K], tailcorrection: yes
    Co_ -     Cu_ [LENNARD_JONES] p_0/k_B:   4.21497 [K], p_1: 2.83500 [A], shift/k_B:   0.00000000 [K], tailcorrection: yes
    Co_ -     Fe_ [LENNARD_JONES] p_0/k_B:  13.96864 [K], p_1: 3.30000 [A], shift/k_B:   0.00000000 [K], tailcorrection: yes
    Co_ -      H_ [LENNARD_JONES] p_0/k_B:   7.34387 [K], p_1: 2.70500 [A], shift/k_B:   0.00000000 [K], tailcorrection: yes
    Co_ -      He [LENNARD_JONES] p_0/k_B:   8.76613 [K], p_1: 2.60000 [A], shift/k_B:   0.00000000 [K], tailcorrection: yes
    Co_ -     In_ [LENNARD_JONES] p_0/k_B:  44.17271 [K], p_1: 3.32500 [A], shift/k_B:   0.00000000 [K], tailcorrection: yes
    Co_ -      N_ [LENNARD_JONES] p_0/k_B:  16.57098 [K], p_1: 2.91000 [A], shift/k_B:   0.00000000 [K], tailcorrection: yes
    Co_ -     Ni_ [LENNARD_JONES] p_0/k_B:   7.29572 [K], p_1: 2.54000 [A], shift/k_B:   0.00000000 [K], tailcorrection: yes
    Co_ -      O_ [LENNARD_JONES] p_0/k_B:  18.42629 [K], p_1: 2.79500 [A], shift/k_B:   0.00000000 [K], tailcorrection: yes
    Co_ -     Zn_ [LENNARD_JONES] p_0/k_B:  13.96864 [K], p_1: 3.30000 [A], shift/k_B:   0.00000000 [K], tailcorrection: yes
    Co_ -    N_n2 [LENNARD_JONES] p_0/k_B:  15.93110 [K], p_1: 2.93500 [A], shift/k_B:   0.00000000 [K], tailcorrection: yes
    Co_ -   N_com [LENNARD_JONES] p_0/k_B:   0.00000 [K], p_1: 1.28000 [A], shift/k_B:   0.00000000 [K], tailcorrection: yes
    Co_ - CH4_sp3 [LENNARD_JONES] p_0/k_B:  32.30170 [K], p_1: 3.14500 [A], shift/k_B:   0.00000000 [K], tailcorrection: yes
    Co_ -      Cu [LENNARD_JONES] p_0/k_B:   4.21497 [K], p_1: 2.83500 [A], shift/k_B:   0.00000000 [K], tailcorrection: yes
    Co_ -       H [LENNARD_JONES] p_0/k_B:   7.34387 [K], p_1: 2.70500 [A], shift/k_B:   0.00000000 [K], tailcorrection: yes
    Co_ -       C [LENNARD_JONES] p_0/k_B:  18.36881 [K], p_1: 3.01500 [A], shift/k_B:   0.00000000 [K], tailcorrection: yes
    Co_ -       O [LENNARD_JONES] p_0/k_B:  18.42629 [K], p_1: 2.79500 [A], shift/k_B:   0.00000000 [K], tailcorrection: yes
    Cu_ -     Cu_ [LENNARD_JONES] p_0/k_B:   2.52000 [K], p_1: 3.11000 [A], shift/k_B:   0.00000000 [K], tailcorrection: yes
    Cu_ -     Fe_ [LENNARD_JONES] p_0/k_B:   8.35141 [K], p_1: 3.57500 [A], shift/k_B:   0.00000000 [K], tailcorrection: yes
    Cu_ -      H_ [LENNARD_JONES] p_0/k_B:   4.39067 [K], p_1: 2.98000 [A], shift/k_B:   0.00000000 [K], tailcorrection: yes
    Cu_ -      He [LENNARD_JONES] p_0/k_B:   5.24099 [K], p_1: 2.87500 [A], shift/k_B:   0.00000000 [K], tailcorrection: yes
    Cu_ -     In_ [LENNARD_JONES] p_0/k_B:  26.40948 [K], p_1: 3.60000 [A], shift/k_B:   0.00000000 [K], tailcorrection: yes
    Cu_ -      N_ [LENNARD_JONES] p_0/k_B:   9.90727 [K], p_1: 3.18500 [A], shift/k_B:   0.00000000 [K], tailcorrection: yes
    Cu_ -     Ni_ [LENNARD_JONES] p_0/k_B:   4.36188 [K], p_1: 2.81500 [A], shift/k_B:   0.00000000 [K], tailcorrection: yes
    Cu_ -      O_ [LENNARD_JONES] p_0/k_B:  11.01650 [K], p_1: 3.07000 [A], shift/k_B:   0.00000000 [K], tailcorrection: yes
    Cu_ -     Zn_ [LENNARD_JONES] p_0/k_B:   8.35141 [K], p_1: 3.57500 [A], shift/k_B:   0.00000000 [K], tailcorrection: yes
    Cu_ -    N_n2 [LENNARD_JONES] p_0/k_B:   9.52470 [K], p_1: 3.21000 [A], shift/k_B:   0.00000000 [K], tailcorrection: yes
    Cu_ -   N_com [LENNARD_JONES] p_0/k_B:   0.00000 [K], p_1: 1.55500 [A], shift/k_B:   0.00000000 [K], tailcorrection: yes
    Cu_ - CH4_sp3 [LENNARD_JONES] p_0/k_B:  19.31217 [K], p_1: 3.42000 [A], shift/k_B:   0.00000000 [K], tailcorrection: yes
    Cu_ -      Cu [LENNARD_JONES] p_0/k_B:   2.52000 [K], p_1: 3.11000 [A], shift/k_B:   0.00000000 [K], tailcorrection: yes
    Cu_ -       H [LENNARD_JONES] p_0/k_B:   4.39067 [K], p_1: 2.98000 [A], shift/k_B:   0.00000000 [K], tailcorrection: yes
    Cu_ -       C [LENNARD_JONES] p_0/k_B:  10.98213 [K], p_1: 3.29000 [A], shift/k_B:   0.00000000 [K], tailcorrection: yes
    Cu_ -       O [LENNARD_JONES] p_0/k_B:  11.01650 [K], p_1: 3.07000 [A], shift/k_B:   0.00000000 [K], tailcorrection: yes
    Fe_ -     Fe_ [LENNARD_JONES] p_0/k_B:  27.67700 [K], p_1: 4.04000 [A], shift/k_B:   0.00000000 [K], tailcorrection: yes
    Fe_ -      H_ [LENNARD_JONES] p_0/k_B:  14.55091 [K], p_1: 3.44500 [A], shift/k_B:   0.00000000 [K], tailcorrection: yes
    Fe_ -      He [LENNARD_JONES] p_0/k_B:  17.36892 [K], p_1: 3.34000 [A], shift/k_B:   0.00000000 [K], tailcorrection: yes
    Fe_ -     In_ [LENNARD_JONES] p_0/k_B:  87.52236 [K], p_1: 4.06500 [A], shift/k_B:   0.00000000 [K], tailcorrection: yes
    Fe_ -      N_ [LENNARD_JONES] p_0/k_B:  32.83320 [K], p_1: 3.65000 [A], shift/k_B:   0.00000000 [K], tailcorrection: yes
    Fe_ -     Ni_ [LENNARD_JONES] p_0/k_B:  14.45550 [K], p_1: 3.28000 [A], shift/k_B:   0.00000000 [K], tailcorrection: yes
    Fe_ -      O_ [LENNARD_JONES] p_0/k_B:  36.50924 [K], p_1: 3.53500 [A], shift/k_B:   0.00000000 [K], tailcorrection: yes
    Fe_ -     Zn_ [LENNARD_JONES] p_0/k_B:  27.67700 [K], p_1: 4.04000 [A], shift/k_B:   0.00000000 [K], tailcorrection: yes
    Fe_ -    N_n2 [LENNARD_JONES] p_0/k_B:  31.56536 [K], p_1: 3.67500 [A], shift/k_B:   0.00000000 [K], tailcorrection: yes
    Fe_ -   N_com [LENNARD_JONES] p_0/k_B:   0.00000 [K], p_1: 2.02000 [A], shift/k_B:   0.00000000 [K], tailcorrection: yes
    Fe_ - CH4_sp3 [LENNARD_JONES] p_0/k_B:  64.00153 [K], p_1: 3.88500 [A], shift/k_B:   0.00000000 [K], tailcorrection: yes
    Fe_ -      Cu [LENNARD_JONES] p_0/k_B:   8.35141 [K], p_1: 3.57500 [A], shift/k_B:   0.00000000 [K], tailcorrection: yes
    Fe_ -       H [LENNARD_JONES] p_0/k_B:  14.55091 [K], p_1: 3.44500 [A], shift/k_B:   0.00000000 [K], tailcorrection: yes
    Fe_ -       C [LENNARD_JONES] p_0/k_B:  36.39535 [K], p_1: 3.75500 [A], shift/k_B:   0.00000000 [K], tailcorrection: yes
    Fe_ -       O [LENNARD_JONES] p_0/k_B:  36.50924 [K], p_1: 3.53500 [A], shift/k_B:   0.00000000 [K], tailcorrection: yes
     H_ -      H_ [LENNARD_JONES] p_0/k_B:   7.65000 [K], p_1: 2.85000 [A], shift/k_B:   0.00000000 [K], tailcorrection: yes
     H_ -      He [LENNARD_JONES] p_0/k_B:   9.13154 [K], p_1: 2.74500 [A], shift/k_B:   0.00000000 [K], tailcorrection: yes
     H_ -     In_ [LENNARD_JONES] p_0/k_B:  46.01403 [K], p_1: 3.47000 [A], shift/k_B:   0.00000000 [K], tailcorrection: yes
     H_ -      N_ [LENNARD_JONES] p_0/k_B:  17.26174 [K], p_1: 3.05500 [A], shift/k_B:   0.00000000 [K], tailcorrection: yes
     H_ -     Ni_ [LENNARD_JONES] p_0/k_B:   7.59984 [K], p_1: 2.68500 [A], shift/k_B:   0.00000000 [K], tailcorrection: yes
     H_ -      O_ [LENNARD_JONES] p_0/k_B:  19.19437 [K], p_1: 2.94000 [A], shift/k_B:   0.00000000 [K], tailcorrection: yes
     H_ -     Zn_ [LENNARD_JONES] p_0/k_B:  14.55091 [K], p_1: 3.44500 [A], shift/k_B:   0.00000000 [K], tailcorrection: yes
     H_ -    N_n2 [LENNARD_JONES] p_0/k_B:  16.59518 [K], p_1: 3.08000 [A], shift/k_B:   0.00000000 [K], tailcorrection: yes
     H_ -   N_com [LENNARD_JONES] p_0/k_B:   0.00000 [K], p_1: 1.42500 [A], shift/k_B:   0.00000000 [K], tailcorrection: yes
     H_ - CH4_sp3 [LENNARD_JONES] p_0/k_B:  33.64818 [K], p_1: 3.29000 [A], shift/k_B:   0.00000000 [K], tailcorrection: yes
     H_ -      Cu [LENNARD_JONES] p_0/k_B:   4.39067 [K], p_1: 2.98000 [A], shift/k_B:   0.00000000 [K], tailcorrection: yes
     H_ -       H [LENNARD_JONES] p_0/k_B:   7.65000 [K], p_1: 2.85000 [A], shift/k_B:   0.00000000 [K], tailcorrection: yes
     H_ -       C [LENNARD_JONES] p_0/k_B:  19.13450 [K], p_1: 3.16000 [A], shift/k_B:   0.00000000 [K], tailcorrection: yes
     H_ -       O [LENNARD_JONES] p_0/k_B:  19.19437 [K], p_1: 2.94000 [A], shift/k_B:   0.00000000 [K], tailcorrection: yes
     He -      He [LENNARD_JONES] p_0/k_B:  10.90000 [K], p_1: 2.64000 [A], shift/k_B:   0.00000000 [K], tailcorrection: yes
     He -     In_ [LENNARD_JONES] p_0/k_B:  54.92534 [K], p_1: 3.36500 [A], shift/k_B:   0.00000000 [K], tailcorrection: yes
     He -      N_ [LENNARD_JONES] p_0/k_B:  20.60473 [K], p_1: 2.95000 [A], shift/k_B:   0.00000000 [K], tailcorrection: yes
     He -     Ni_ [LENNARD_JONES] p_0/k_B:   9.07166 [K], p_1: 2.58000 [A], shift/k_B:   0.00000000 [K], tailcorrection: yes
     He -      O_ [LENNARD_JONES] p_0/k_B:  22.91166 [K], p_1: 2.83500 [A], shift/k_B:   0.00000000 [K], tailcorrection: yes
     He -     Zn_ [LENNARD_JONES] p_0/k_B:  17.36892 [K], p_1: 3.34000 [A], shift/k_B:   0.00000000 [K], tailcorrection: yes
     He -    N_n2 [LENNARD_JONES] p_0/k_B:  19.80909 [K], p_1: 2.97500 [A], shift/k_B:   0.00000000 [K], tailcorrection: yes
     He -   N_com [LENNARD_JONES] p_0/k_B:   0.00000 [K], p_1: 1.32000 [A], shift/k_B:   0.00000000 [K], tailcorrection: yes
     He - CH4_sp3 [LENNARD_JONES] p_0/k_B:  40.16466 [K], p_1: 3.18500 [A], shift/k_B:   0.00000000 [K], tailcorrection: yes
     He -      Cu [LENNARD_JONES] p_0/k_B:   5.24099 [K], p_1: 2.87500 [A], shift/k_B:   0.00000000 [K], tailcorrection: yes
     He -       H [LENNARD_JONES] p_0/k_B:   9.13154 [K], p_1: 2.74500 [A], shift/k_B:   0.00000000 [K], tailcorrection: yes
     He -       C [LENNARD_JONES] p_0/k_B:  22.84018 [K], p_1: 3.05500 [A], shift/k_B:   0.00000000 [K], tailcorrection: yes
     He -       O [LENNARD_JONES] p_0/k_B:  22.91166 [K], p_1: 2.83500 [A], shift/k_B:   0.00000000 [K], tailcorrection: yes
    In_ -     In_ [LENNARD_JONES] p_0/k_B: 276.77000 [K], p_1: 4.09000 [A], shift/k_B:   0.00000000 [K], tailcorrection: yes
    In_ -      N_ [LENNARD_JONES] p_0/k_B: 103.82770 [K], p_1: 3.67500 [A], shift/k_B:   0.00000000 [K], tailcorrection: yes
    In_ -     Ni_ [LENNARD_JONES] p_0/k_B:  45.71229 [K], p_1: 3.30500 [A], shift/k_B:   0.00000000 [K], tailcorrection: yes
    In_ -      O_ [LENNARD_JONES] p_0/k_B: 115.45234 [K], p_1: 3.56000 [A], shift/k_B:   0.00000000 [K], tailcorrection: yes
    In_ -     Zn_ [LENNARD_JONES] p_0/k_B:  87.52236 [K], p_1: 4.06500 [A], shift/k_B:   0.00000000 [K], tailcorrection: yes
    In_ -    N_n2 [LENNARD_JONES] p_0/k_B:  99.81844 [K], p_1: 3.70000 [A], shift/k_B:   0.00000000 [K], tailcorrection: yes
    In_ -   N_com [LENNARD_JONES] p_0/k_B:   0.00000 [K], p_1: 2.04500 [A], shift/k_B:   0.00000000 [K], tailcorrection: yes
    In_ - CH4_sp3 [LENNARD_JONES] p_0/k_B: 202.39061 [K], p_1: 3.91000 [A], shift/k_B:   0.00000000 [K], tailcorrection: yes
    In_ -      Cu [LENNARD_JONES] p_0/k_B:  26.40948 [K], p_1: 3.60000 [A], shift/k_B:   0.00000000 [K], tailcorrection: yes
    In_ -       H [LENNARD_JONES] p_0/k_B:  46.01403 [K], p_1: 3.47000 [A], shift/k_B:   0.00000000 [K], tailcorrection: yes
    In_ -       C [LENNARD_JONES] p_0/k_B: 115.09219 [K], p_1: 3.78000 [A], shift/k_B:   0.00000000 [K], tailcorrection: yes
    In_ -       O [LENNARD_JONES] p_0/k_B: 115.45234 [K], p_1: 3.56000 [A], shift/k_B:   0.00000000 [K], tailcorrection: yes
     N_ -      N_ [LENNARD_JONES] p_0/k_B:  38.95000 [K], p_1: 3.26000 [A], shift/k_B:   0.00000000 [K], tailcorrection: yes
     N_ -     Ni_ [LENNARD_JONES] p_0/k_B:  17.14854 [K], p_1: 2.89000 [A], shift/k_B:   0.00000000 [K], tailcorrection: yes
     N_ -      O_ [LENNARD_JONES] p_0/k_B:  43.31088 [K], p_1: 3.14500 [A], shift/k_B:   0.00000000 [K], tailcorrection: yes
     N_ -     Zn_ [LENNARD_JONES] p_0/k_B:  32.83320 [K], p_1: 3.65000 [A], shift/k_B:   0.00000000 [K], tailcorrection: yes
     N_ -    N_n2 [LENNARD_JONES] p_0/k_B:  37.44596 [K], p_1: 3.28500 [A], shift/k_B:   0.00000000 [K], tailcorrection: yes
     N_ -   N_com [LENNARD_JONES] p_0/k_B:   0.00000 [K], p_1: 1.63000 [A], shift/k_B:   0.00000000 [K], tailcorrection: yes
     N_ - CH4_sp3 [LENNARD_JONES] p_0/k_B:  75.92496 [K], p_1: 3.49500 [A], shift/k_B:   0.00000000 [K], tailcorrection: yes
     N_ -      Cu [LENNARD_JONES] p_0/k_B:   9.90727 [K], p_1: 3.18500 [A], shift/k_B:   0.00000000 [K], tailcorrection: yes
     N_ -       H [LENNARD_JONES] p_0/k_B:  17.26174 [K], p_1: 3.05500 [A], shift/k_B:   0.00000000 [K], tailcorrection: yes
     N_ -       C [LENNARD_JONES] p_0/k_B:  43.17577 [K], p_1: 3.36500 [A], shift/k_B:   0.00000000 [K], tailcorrection: yes
     N_ -       O [LENNARD_JONES] p_0/k_B:  43.31088 [K], p_1: 3.14500 [A], shift/k_B:   0.00000000 [K], tailcorrection: yes
    Ni_ -     Ni_ [LENNARD_JONES] p_0/k_B:   7.55000 [K], p_1: 2.52000 [A], shift/k_B:   0.00000000 [K], tailcorrection: yes
    Ni_ -      O_ [LENNARD_JONES] p_0/k_B:  19.06851 [K], p_1: 2.77500 [A], shift/k_B:   0.00000000 [K], tailcorrection: yes
    Ni_ -     Zn_ [LENNARD_JONES] p_0/k_B:  14.45550 [K], p_1: 3.28000 [A], shift/k_B:   0.00000000 [K], tailcorrection: yes
    Ni_ -    N_n2 [LENNARD_JONES] p_0/k_B:  16.48636 [K], p_1: 2.91500 [A], shift/k_B:   0.00000000 [K], tailcorrection: yes
    Ni_ -   N_com [LENNARD_JONES] p_0/k_B:   0.00000 [K], p_1: 1.26000 [A], shift/k_B:   0.00000000 [K], tailcorrection: yes
    Ni_ - CH4_sp3 [LENNARD_JONES] p_0/k_B:  33.42753 [K], p_1: 3.12500 [A], shift/k_B:   0.00000000 [K], tailcorrection: yes
    Ni_ -      Cu [LENNARD_JONES] p_0/k_B:   4.36188 [K], p_1: 2.81500 [A], shift/k_B:   0.00000000 [K], tailcorrection: yes
    Ni_ -       H [LENNARD_JONES] p_0/k_B:   7.59984 [K], p_1: 2.68500 [A], shift/k_B:   0.00000000 [K], tailcorrection: yes
    Ni_ -       C [LENNARD_JONES] p_0/k_B:  19.00902 [K], p_1: 2.99500 [A], shift/k_B:   0.00000000 [K], tailcorrection: yes
    Ni_ -       O [LENNARD_JONES] p_0/k_B:  19.06851 [K], p_1: 2.77500 [A], shift/k_B:   0.00000000 [K], tailcorrection: yes
     O_ -      O_ [LENNARD_JONES] p_0/k_B:  48.16000 [K], p_1: 3.03000 [A], shift/k_B:   0.00000000 [K], tailcorrection: yes
     O_ -     Zn_ [LENNARD_JONES] p_0/k_B:  36.50924 [K], p_1: 3.53500 [A], shift/k_B:   0.00000000 [K], tailcorrection: yes
     O_ -    N_n2 [LENNARD_JONES] p_0/k_B:  41.63844 [K], p_1: 3.17000 [A], shift/k_B:   0.00000000 [K], tailcorrection: yes
     O_ -   N_com [LENNARD_JONES] p_0/k_B:   0.00000 [K], p_1: 1.51500 [A], shift/k_B:   0.00000000 [K], tailcorrection: yes
     O_ - CH4_sp3 [LENNARD_JONES] p_0/k_B:  84.42559 [K], p_1: 3.38000 [A], shift/k_B:   0.00000000 [K], tailcorrection: yes
     O_ -      Cu [LENNARD_JONES] p_0/k_B:  11.01650 [K], p_1: 3.07000 [A], shift/k_B:   0.00000000 [K], tailcorrection: yes
     O_ -       H [LENNARD_JONES] p_0/k_B:  19.19437 [K], p_1: 2.94000 [A], shift/k_B:   0.00000000 [K], tailcorrection: yes
     O_ -       C [LENNARD_JONES] p_0/k_B:  48.00977 [K], p_1: 3.25000 [A], shift/k_B:   0.00000000 [K], tailcorrection: yes
     O_ -       O [LENNARD_JONES] p_0/k_B:  48.16000 [K], p_1: 3.03000 [A], shift/k_B:   0.00000000 [K], tailcorrection: yes
    Zn_ -     Zn_ [LENNARD_JONES] p_0/k_B:  27.67700 [K], p_1: 4.04000 [A], shift/k_B:   0.00000000 [K], tailcorrection: yes
    Zn_ -    N_n2 [LENNARD_JONES] p_0/k_B:  31.56536 [K], p_1: 3.67500 [A], shift/k_B:   0.00000000 [K], tailcorrection: yes
    Zn_ -   N_com [LENNARD_JONES] p_0/k_B:   0.00000 [K], p_1: 2.02000 [A], shift/k_B:   0.00000000 [K], tailcorrection: yes
    Zn_ - CH4_sp3 [LENNARD_JONES] p_0/k_B:  64.00153 [K], p_1: 3.88500 [A], shift/k_B:   0.00000000 [K], tailcorrection: yes
    Zn_ -      Cu [LENNARD_JONES] p_0/k_B:   8.35141 [K], p_1: 3.57500 [A], shift/k_B:   0.00000000 [K], tailcorrection: yes
    Zn_ -       H [LENNARD_JONES] p_0/k_B:  14.55091 [K], p_1: 3.44500 [A], shift/k_B:   0.00000000 [K], tailcorrection: yes
    Zn_ -       C [LENNARD_JONES] p_0/k_B:  36.39535 [K], p_1: 3.75500 [A], shift/k_B:   0.00000000 [K], tailcorrection: yes
    Zn_ -       O [LENNARD_JONES] p_0/k_B:  36.50924 [K], p_1: 3.53500 [A], shift/k_B:   0.00000000 [K], tailcorrection: yes
   N_n2 -    N_n2 [LENNARD_JONES] p_0/k_B:  36.00000 [K], p_1: 3.31000 [A], shift/k_B:   0.00000000 [K], tailcorrection: yes
   N_n2 -   N_com [LENNARD_JONES] p_0/k_B:   0.00000 [K], p_1: 1.65500 [A], shift/k_B:   0.00000000 [K], tailcorrection: yes
   N_n2 - CH4_sp3 [LENNARD_JONES] p_0/k_B:  72.99315 [K], p_1: 3.52000 [A], shift/k_B:   0.00000000 [K], tailcorrection: yes
   N_n2 -      Cu [LENNARD_JONES] p_0/k_B:   9.52470 [K], p_1: 3.21000 [A], shift/k_B:   0.00000000 [K], tailcorrection: yes
   N_n2 -       H [LENNARD_JONES] p_0/k_B:  16.59518 [K], p_1: 3.08000 [A], shift/k_B:   0.00000000 [K], tailcorrection: yes
   N_n2 -       C [LENNARD_JONES] p_0/k_B:  41.50855 [K], p_1: 3.39000 [A], shift/k_B:   0.00000000 [K], tailcorrection: yes
   N_n2 -       O [LENNARD_JONES] p_0/k_B:  41.63844 [K], p_1: 3.17000 [A], shift/k_B:   0.00000000 [K], tailcorrection: yes
  N_com -   N_com [LENNARD_JONES] p_0/k_B:   0.00000 [K], p_1: 0.00000 [A], shift/k_B:   0.00000000 [K], tailcorrection: yes
  N_com - CH4_sp3 [LENNARD_JONES] p_0/k_B:   0.00000 [K], p_1: 1.86500 [A], shift/k_B:   0.00000000 [K], tailcorrection: yes
  N_com -      Cu [LENNARD_JONES] p_0/k_B:   0.00000 [K], p_1: 1.55500 [A], shift/k_B:   0.00000000 [K], tailcorrection: yes
  N_com -       H [LENNARD_JONES] p_0/k_B:   0.00000 [K], p_1: 1.42500 [A], shift/k_B:   0.00000000 [K], tailcorrection: yes
  N_com -       C [LENNARD_JONES] p_0/k_B:   0.00000 [K], p_1: 1.73500 [A], shift/k_B:   0.00000000 [K], tailcorrection: yes
  N_com -       O [LENNARD_JONES] p_0/k_B:   0.00000 [K], p_1: 1.51500 [A], shift/k_B:   0.00000000 [K], tailcorrection: yes
CH4_sp3 - CH4_sp3 [LENNARD_JONES] p_0/k_B: 148.00000 [K], p_1: 3.73000 [A], shift/k_B:   0.00000000 [K], tailcorrection: yes
CH4_sp3 -      Cu [LENNARD_JONES] p_0/k_B:  19.31217 [K], p_1: 3.42000 [A], shift/k_B:   0.00000000 [K], tailcorrection: yes
CH4_sp3 -       H [LENNARD_JONES] p_0/k_B:  33.64818 [K], p_1: 3.29000 [A], shift/k_B:   0.00000000 [K], tailcorrection: yes
CH4_sp3 -       C [LENNARD_JONES] p_0/k_B:  84.16222 [K], p_1: 3.60000 [A], shift/k_B:   0.00000000 [K], tailcorrection: yes
CH4_sp3 -       O [LENNARD_JONES] p_0/k_B:  84.42559 [K], p_1: 3.38000 [A], shift/k_B:   0.00000000 [K], tailcorrection: yes
     Cu -      Cu [LENNARD_JONES] p_0/k_B:   2.52000 [K], p_1: 3.11000 [A], shift/k_B:   0.00000000 [K], tailcorrection: yes
     Cu -       H [LENNARD_JONES] p_0/k_B:   4.39067 [K], p_1: 2.98000 [A], shift/k_B:   0.00000000 [K], tailcorrection: yes
     Cu -       C [LENNARD_JONES] p_0/k_B:  10.98213 [K], p_1: 3.29000 [A], shift/k_B:   0.00000000 [K], tailcorrection: yes
     Cu -       O [LENNARD_JONES] p_0/k_B:  11.01650 [K], p_1: 3.07000 [A], shift/k_B:   0.00000000 [K], tailcorrection: yes
      H -       H [LENNARD_JONES] p_0/k_B:   7.65000 [K], p_1: 2.85000 [A], shift/k_B:   0.00000000 [K], tailcorrection: yes
      H -       C [LENNARD_JONES] p_0/k_B:  19.13450 [K], p_1: 3.16000 [A], shift/k_B:   0.00000000 [K], tailcorrection: yes
      H -       O [LENNARD_JONES] p_0/k_B:  19.19437 [K], p_1: 2.94000 [A], shift/k_B:   0.00000000 [K], tailcorrection: yes
      C -       C [LENNARD_JONES] p_0/k_B:  47.86000 [K], p_1: 3.47000 [A], shift/k_B:   0.00000000 [K], tailcorrection: yes
      C -       O [LENNARD_JONES] p_0/k_B:  48.00977 [K], p_1: 3.25000 [A], shift/k_B:   0.00000000 [K], tailcorrection: yes
      O -       O [LENNARD_JONES] p_0/k_B:  48.16000 [K], p_1: 3.03000 [A], shift/k_B:   0.00000000 [K], tailcorrection: yes


MoleculeDefinitions:
===========================================================================
Component 0 [methane] (Adsorbate molecule)

	MoleculeDefinitions: TraPPE
	Component contains no atoms with charge
	Component contains no atoms with point dipoles (polarization)
	Component has a net charge of 0.000000

	Ideal chain Rosenbluth weight: 1
	Ideal chain total energy: 0.000000

	Critical temparure [K]: 190.564000
	Critical pressure [Pa]: 4599200.000000
	Acentric factor [-]: 0.011420

	RXMC partition factor [-]: 0.000000

	Vapour=stable, Liquid=metastable

	MolFraction:           1.0000000000 [-]
	Compressibility:       0.9998330515 [-]

	Density of the bulk fluid phase:       0.0263152648 [kg/m^3]

	Binary mixture EOS parameters:  (0): 0.000000

	Amount of excess molecules:       0.0000000000 [-]

	Conversion factor molecules/unit cell -> mol/kg:       0.1646875603 [-]
	Conversion factor molecules/unit cell -> gr/gr:       2.6419935984 [-]
	Conversion factor molecules/unit cell -> cm^3 STP/gr:       3.6913029823 [-]
	Conversion factor molecules/unit cell -> cm^3 STP/cm^3:       0.4670383012 [-]
	Conversion factor mol/kg -> cm^3 STP/gr:      22.4139757476 [-]
	Conversion factor mol/kg -> cm^3 STP/cm^3:       2.8359051553 [-]

	Partial pressure:      3000.00000000000000 [Pa]
	                         22.50000000000000 [Torr]
	                          0.03000000000000 [bar]
	                          0.02960769800148 [atm]

	Fugacity coefficient:       0.9998330691 [-]

	Partial fugacity:      2999.49920742958102 [Pa]
	                         22.49624405572186 [Torr]
	                          0.02999499207430 [bar]
	                          0.02960275556308 [atm]

	Molecule contains 1 number of atoms
		atom:    0  is of type:   18 [   CH4_sp3] (group: 0)

	Molecule contains 0 chirality centers

	Molecule contains 1 number of groups

		group: 0 containing: 1 elements
		-------------------------------------------------
		the group is modelled as flexible, i.e. no constraints
		Mass: 16.042460 [a.u.]
		Mass: 0.334276 [kg/m^3]

		Rotational Degrees of freedom: 0
		Diagonalized inertia vector:       0.0000000000
		                                   0.0000000000
		                                   0.0000000000
		element: 0 atom: 0 [   CH4_sp3] Charge:  0.000000 Anisotropy: 0.000000 Connectivity: 0 ()

		Dipole:           0.0000000000 [D]
		Quadrupole:       0.0000000000       0.0000000000       0.0000000000 [D Angstrom]
		Quadrupole tensor [D Angstrom]
				       0.0000000000       0.0000000000       0.0000000000
				       0.0000000000       0.0000000000       0.0000000000
				       0.0000000000       0.0000000000       0.0000000000

	Starting bead for growth               : 0

	Degrees of freedom                     : 0
	Translational degrees of freedom       : 0
	Rotational degrees of freedom          : 0
	Vibrational degrees of freedom         : 0
	Constraint degrees of freedom          : 0

	Number of atoms                        : 1

	Number of constraint bonds             : 0
	Number of constraint bends             : 0
	Number of constraint inversion bends   : 0
	Number of constraint torsions          : 0
	Number of constraint improper torsions : 0
	Number of constraint improper torsions : 0

	Number of bonds                        : 0
	Number of Urey-Bradleys                : 0
	Number of bends                        : 0
	Number of inversion bends              : 0
	Number of torsions                     : 0
	Number of improper torsions            : 0
	Number of improper torsions            : 0

	Number of bond/bond cross terms        : 0
	Number of bond/bend cross terms        : 0
	Number of bend/bend cross terms        : 0
	Number of stretch/torsion cross terms  : 0
	Number of bend/torsion cross terms     : 0

	Number of charges                      : 0
	Number of bond-dipoles                 : 0

	Number of intra Van der Waals                             : 0
	Number of intra charge-charge Coulomb                     : 0
	Number of intra charge-bonddipole Coulomb                 : 0
	Number of intra bonddipole-bonddipole Coulomb             : 0

	Number of excluded intra charge-charge Coulomb                     : 0
	Number of excluded intra charge-bonddipole Coulomb                 : 0
	Number of excluded intra bonddipole-bonddipole Coulomb             : 0

	Number of cbmc-config moves                               : 0

	Particle Moves:             
		ProbabilityTranslationMove:                  14.285714
			TranslationDirection:      XYZ
		Percentage of random translation moves:            0.000000
		Percentage of rotation moves:                      0.000000
		Percentage of random rotation moves:               0.000000
		Percentage of partial reinsertion moves:           0.000000
		Percentage of reinsertion moves:                   28.571429
		Percentage of reinsertion-in-place moves:          0.000000
		Percentage of reinsertion-in-plane moves:          0.000000
		Percentage of identity-change moves:               0.000000
		Percentage of swap (insert/delete) moves:          57.142857
		Percentage of CF swap lambda moves:                0.000000
		Percentage of CB/CFMC swap lambda moves:           0.000000
		Percentage of Widom insertion moves:               0.000000
		Percentage of CF-Widom insertion moves:            0.000000
		Percentage of Gibbs Widom insertion moves:         0.000000
		Percentage of surface-area moves:                  0.000000
		Percentage of Gibbs particle-transfer moves:       0.000000
		Percentage of Gibbs identity-change moves:         0.000000
		Percentage of CF Gibbs lambda-transfer moves:      0.000000
		Percentage of CB/CFMC Gibbs lambda-transfer moves: 0.000000
		Percentage of exchange frac./int. particle moves:  0.000000
		Percentage of fractional mol. to other box moves:  0.000000
		Percentage of lambda-change moves:                 0.000000
		Percentage of fractional to integer moves:         0.000000

	System Moves:
		Percentage of parallel-tempering moves:            0.000000
		Percentage of hyper-parallel-tempering moves:      0.000000
		Percentage of parallel-mol-fraction moves:         0.000000
			   Component A: 0 B: 1
		Percentage of chiral inversion moves:              0.000000
		Percentage of Hybrid-NVE moves:                    0.000000
		Percentage of Hybrid-NPH moves:                    0.000000
		Percentage of Hybrid-NPHPR moves:                  0.000000
		Percentage of volume-change moves:                 0.000000
		Percentage of box-shape-change moves:              0.000000
		Percentage of Gibbs volume-change moves:           0.000000
		Percentage of framework-change moves:              0.000000
		Percentage of framework-shift moves:               0.000000
		Percentage of reactive MC moves:                   0.000000

	Moves are restricted: No
	No biased sampling used for this component


	number of identity-config changes: 1
	--------------------------------------------
	nr fixed 1: 0 

	Number of pockets blocked in a unitcell: 0
		Pockets are NOT blocked for this component



Framework Status
===========================================================================
Lowenstein's rule obeyed by framework
	Framework is modelled as: rigid

	Number of charges:                               0
	Number of bonddipoles:                           0


System Properties
===========================================================================
Unit cell size: 48.303300 48.303300 48.303300
Cell angles (radians)  alpha: 1.047198 beta: 1.047198 gamma: 1.047198
Cell angles (degrees)  alpha: 60.000000 beta: 60.000000 gamma: 60.000000
Number of unitcells [a]: 1
Number of unitcells [b]: 1
Number of unitcells [c]: 1

TRICLINIC Boundary conditions: alpha!=90 or beta!=90 or gamma!=90

Cartesian axis A is collinear with crystallographic axis a
Cartesian axis B is collinear with (axb)xA
Cartesian axis C is collinear with (axb)

lengths of cell vectors:
 48.30330  48.30330  48.30330
cosines of cell angles:
  0.50000   0.50000   0.50000
perpendicular cell widths:
 39.43948  39.43948  39.43948
volume of the cell: 79692.125141184428 (A^3)

Orthogonalization matrix Box
Transforms fractional coordinates abc into orthonormal Cartesian coordinates xyz
Deorthogonalization matrix InverseBox
Transforms orthonormal Cartesian coordinates xyz into fractional coordinates xyz

Box[0]:
	   48.303300000000    24.151650000000    24.151650000000
	    0.000000000000    41.831884886621    13.943961628874
	    0.000000000000     0.000000000000    39.439479297526

Inverse box[0]:
	    0.020702519290    -0.011952605085    -0.008451768108
	    0.000000000000     0.023905210169    -0.008451768108
	    0.000000000000     0.000000000000     0.025355304325


Unitcell box[0]:
	   48.303300000000    24.151650000000    24.151650000000
	    0.000000000000    41.831884886621    13.943961628874
	    0.000000000000     0.000000000000    39.439479297526

Unitcell inverse box[0]:
	    0.020702519290    -0.011952605085    -0.008451768108
	    0.000000000000     0.023905210169    -0.008451768108
	    0.000000000000     0.000000000000     0.025355304325

lengths of cell vectors (inverse box):
  0.02070   0.02673   0.02803
cosines of cell angles (inverse box):
 -0.13484  -0.30151  -0.44721
perpendicular cell widths (inverse):
  0.01690   0.02268   0.02536
volume of the cell: 79692.125141184428 (A^3)

No replicas are used
Framework is simulated as 'rigid'
Number of framework atoms: 636
Number of framework atoms in the unit cell: 636
Framework Mass:  6072.104038962960 [g/mol]
Framework Density:   126.523968227745 [kg/m^3]    7.9036408200538 [cm^3/g]
Helium void fraction:    0.00000000
Available pore volume:    0.00000000 [A^3]    0.00000000 [cm^3/g]
Conversion factor from molecule/unit cell -> kmol/m^3: 0.0208369, kmol/m^3 accesible pore volume: inf

Number Of Frameworks (per system): 1
----------------------------------------------------------------------
Framework name: BAZGAM_clean
Space group: 1
	Identifier: 1
	short international Hermann-Mauguin symbol: P 1
	long international Hermann-Mauguin symbol: P 1
	Hall symbol: P 1
	Number of lattice translations: 1 [ (0,0,0) ]
	acentric/centric: acentric
	chiral: no
	enantiomorphic: no
	number of operators: 1
		'x,y,z'
Framework is simulated as 'rigid'
Shift: 0.000000 0.000000 0.000000
Number of framework atoms: 636
Number of asymmetric atoms: 636
Number of free framework atoms: 0
Number of fixed framework atoms: 636
Number of framework atoms in the unit cell: 636
Framework Mass:  6072.104038962960 [g/mol]
Framework Density:   126.523968227745 [kg/m^3]
Framework has net charge: 0.000000
         largest charge : 0.000000
         smallest charge: 0.000000

Using FULL Host-guest interaction calculation (for testing purposes)

Current Atom Status
===========================================================================
Number of framework atoms        : 636
Number of cations molecules      : 0
Number of adsorbate molecules    : 0
Component    0 :    0 molecules
Pseudo Atoms    0 [    UNIT]:    0 atoms
Pseudo Atoms    1 [     Al_]:    0 atoms
Pseudo Atoms    2 [     Cd_]:    0 atoms
Pseudo Atoms    3 [     Mg_]:    0 atoms
Pseudo Atoms    4 [      C_]:    0 atoms
Pseudo Atoms    5 [     Cl_]:    0 atoms
Pseudo Atoms    6 [     Co_]:    0 atoms
Pseudo Atoms    7 [     Cu_]:    0 atoms
Pseudo Atoms    8 [     Fe_]:    0 atoms
Pseudo Atoms    9 [      H_]:    0 atoms
Pseudo Atoms   10 [      He]:    0 atoms
Pseudo Atoms   11 [     In_]:    0 atoms
Pseudo Atoms   12 [      N_]:    0 atoms
Pseudo Atoms   13 [     Ni_]:    0 atoms
Pseudo Atoms   14 [      O_]:    0 atoms
Pseudo Atoms   15 [     Zn_]:    0 atoms
Pseudo Atoms   16 [    N_n2]:    0 atoms
Pseudo Atoms   17 [   N_com]:    0 atoms
Pseudo Atoms   18 [ CH4_sp3]:    0 atoms
Pseudo Atoms   19 [      Cu]:   12 atoms
Pseudo Atoms   20 [       H]:  216 atoms
Pseudo Atoms   21 [       C]:  360 atoms
Pseudo Atoms   22 [       O]:   48 atoms


Current (initial full energy) Energy Status
===========================================================================

Internal energy:
Host stretch energy:                                            0.00000000
Host UreyBradley energy:                                        0.00000000
Host bend energy:                                               0.00000000
Host inversion-bend energy:                                     0.00000000
Host torsion energy:                                            0.00000000
Host improper torsion energy:                                   0.00000000
Host out-of-plane energy:                                       0.00000000
Host stretch/stretch energy:                                    0.00000000
Host bend/bend energy:                                          0.00000000
Host stretch/bend energy:                                       0.00000000
Host stretch/torsion energy:                                    0.00000000
Host bend/torsion energy:                                       0.00000000

Adsorbate stretch energy:                                       0.00000000
Adsorbate UreyBradley energy:                                   0.00000000
Adsorbate bend energy:                                          0.00000000
Adsorbate inversion-bend energy:                                0.00000000
Adsorbate torsion energy:                                       0.00000000
Adsorbate improper torsion energy:                              0.00000000
Adsorbate out-of-plane energy:                                  0.00000000
Adsorbate stretch/stretch energy:                               0.00000000
Adsorbate bend/bend energy:                                     0.00000000
Adsorbate stretch/bend energy:                                  0.00000000
Adsorbate stretch/torsion energy:                               0.00000000
Adsorbate bend/torsion energy:                                  0.00000000
Adsorbate intra VDW energy:                                     0.00000000
Adsorbate intra charge-charge Coulomb energy:                   0.00000000
Adsorbate intra charge-bonddipole Coulomb energy:               0.00000000
Adsorbate intra bonddipole-bonddipole Coulomb energy:           0.00000000

Cation stretch energy:                                          0.00000000
Cation UreyBradley energy:                                      0.00000000
Cation bend energy:                                             0.00000000
Cation inversion-bend energy:                                   0.00000000
Cation torsion energy:                                          0.00000000
Cation improper torsion energy:                                 0.00000000
Cation out-of-plane energy:                                     0.00000000
Cation stretch/stretch energy:                                  0.00000000
Cation bend/bend energy:                                        0.00000000
Cation stretch/bend energy:                                     0.00000000
Cation stretch/torsion energy:                                  0.00000000
Cation bend/torsion energy:                                     0.00000000
Cation intra VDW energy:                                        0.00000000
Cation intra charge-charge Coulomb energy:                      0.00000000
Cation intra charge-bonddipole Coulomb energy:                  0.00000000
Cation intra bonddipole-bonddipole Coulomb energy:              0.00000000

Host/Host energy:                                             0.00000000
	Host/Host VDW energy:                                         0.00000000
	Host/Host Coulomb energy:                                     0.00000000
	Host/Host charge-charge Real energy:                          0.00000000
	Host/Host charge-charge Fourier energy:                       0.00000000
	Host/Host charge-bonddipole Real energy:                      0.00000000
	Host/Host charge-bonddipole Fourier energy:                   0.00000000
	Host/Host bondipole-bonddipole Real energy:                   0.00000000
	Host/Host bondipole-bonddipole Fourier energy:                0.00000000

Host/Adsorbate energy:                                        0.00000000
	Host/Adsorbate VDW energy:                                    0.00000000
	Host/Adsorbate Coulomb energy:                                0.00000000
	Host/Adsorbate charge-charge Real energy:                     0.00000000
	Host/Adsorbate charge-charge Fourier energy:                  0.00000000
	Host/Adsorbate charge-bonddipole Real energy:                 0.00000000
	Host/Adsorbate charge-bonddipole Fourier energy:              0.00000000
	Host/Adsorbate bondipole-bonddipole Real energy:              0.00000000
	Host/Adsorbate bondipole-bonddipole Fourier energy:           0.00000000

Host/Cation energy:                                           0.00000000
	Host/Cation VDW energy:                                       0.00000000
	Host/Cation Coulomb energy:                                   0.00000000
	Host/Cation charge-charge Real energy:                        0.00000000
	Host/Cation charge-charge Fourier energy:                     0.00000000
	Host/Cation charge-bonddipole Real energy:                    0.00000000
	Host/Cation charge-bonddipole Fourier energy:                 0.00000000
	Host/Cation bondipole-bonddipole Real energy:                 0.00000000
	Host/Cation bondipole-bonddipole Fourier energy:              0.00000000

Adsorbate/Adsorbate energy:                                        0.00000000
	Adsorbate/Adsorbate VDW energy:                                    0.00000000
	Adsorbate/Adsorbate Coulomb energy:                                0.00000000
	Adsorbate/Adsorbate charge-charge Real energy:                     0.00000000
	Adsorbate/Adsorbate charge-charge Fourier energy:                  0.00000000
	Adsorbate/Adsorbate charge-bonddipole Real energy:                 0.00000000
	Adsorbate/Adsorbate charge-bonddipole Fourier energy:              0.00000000
	Adsorbate/Adsorbate bondipole-bonddipole Real energy:              0.00000000
	Adsorbate/Adsorbate bondipole-bonddipole Fourier energy:           0.00000000

Adsorbate/Cation energy:                                           0.00000000
	Adsorbate/Cation VDW energy:                                       0.00000000
	Adsorbate/Cation Coulomb energy:                                   0.00000000
	Adsorbate/Cation charge-charge Real energy:                        0.00000000
	Adsorbate/Cation charge-charge Fourier energy:                     0.00000000
	Adsorbate/Cation charge-bonddipole Real energy:                    0.00000000
	Adsorbate/Cation charge-bonddipole Fourier energy:                 0.00000000
	Adsorbate/Cation bondipole-bonddipole Real energy:                 0.00000000
	Adsorbate/Cation bondipole-bonddipole Fourier energy:              0.00000000

Cation/Cation energy:                                           0.00000000
	Cation/Cation VDW energy:                                       0.00000000
	Cation/Cation Coulomb energy:                                   0.00000000
	Cation/Cation charge-charge Real energy:                        0.00000000
	Cation/Cation charge-charge Fourier energy:                     0.00000000
	Cation/Cation charge-bonddipole Real energy:                    0.00000000
	Cation/Cation charge-bonddipole Fourier energy:                 0.00000000
	Cation/Cation bondipole-bonddipole Real energy:                 0.00000000
	Cation/Cation bondipole-bonddipole Fourier energy:              0.00000000

Polarization energy:
	Host polarization energy:                                     0.00000000
	Adsorbate polarization energy:                                0.00000000
	Cation polarization energy:                                   0.00000000
	Host back-polarization energy:                                     0.00000000
	Adsorbate back-polarization energy:                                0.00000000
	Cation back-polarization energy:                                   0.00000000

Tail-correction energy:                                    -823.38354122

Distance constraints energy:                                  0.00000000
Angle constraints energy:                                     0.00000000
Dihedral constraints energy:                                  0.00000000
Inversion-bend constraints energy:                            0.00000000
Out-of-plane distance constraints energy:                     0.00000000
Exclusion constraints energy:                                 0.00000000

===================================================================
Total energy:  -823.383541221904
	Total Van der Waals: 0.000000
	Total Coulomb: 0.000000

	Total Polarization: 0.000000







+++++++++++++++++++++++++++++++++++++++++++++++++++++++++++++++++++++++++
Starting simulation
+++++++++++++++++++++++++++++++++++++++++++++++++++++++++++++++++++++++++

[Init] Current cycle: 0 out of 10000
========================================================================================================

Net charge: 0 (F: 0, A: 0, C: 0)
Current Box:  48.30330  24.15165  24.15165 [A]
               0.00000  41.83188  13.94396 [A]
               0.00000   0.00000  39.43948 [A]
Box-lengths:  48.30330  48.30330  48.30330 Box-angles:   60.00000  60.00000  60.00000 [degrees]
Volume: 79692.12514 [A^3]

Loadings per component:
----------------------------------------------------------------------------------------------------------------------------------------------------
Component 0 (methane), current number of integer/fractional/reaction molecules: 0/0/0, density:   0.00000 [kg/m^3]
	absolute adsorption:   0.00000 [mol/uc],         0.0000 [mol/kg],              0.0000 [mg/g]
	                                                 0.0000 [cm^3 STP/g],          0.0000 [cm^3 STP/cm^3]
	excess adsorption:     0.00000 [mol/uc],         0.0000 [mol/kg],              0.0000 [mg/g]
	                                                 0.0000 [cm^3 STP/g],          0.0000 [cm^3 STP/cm^3]
----------------------------------------------------------------------------------------------------------------------------------------------------
Degrees of freedom: 0 0 0 0
Number of Framework-atoms:    636
Number of Adsorbates:           0 (0 integer, 0 fractional, 0 reaction)
Number of Cations:              0 (0 integer, 0 fractional, 0 reaction

Current total potential energy:              -823.3835412219 [K]
	Current Host-Host energy:                     0.0000000000 [K]
	Current Host-Adsorbate energy:                0.0000000000 [K]
	Current Host-Cation energy:                   0.0000000000 [K]
	Current Adsorbate-Adsorbate energy:           0.0000000000 [K]
	Current Cation-Cation energy:                 0.0000000000 [K]
	Current Adsorbate-Cation energy:              0.0000000000 [K]



[Init] Current cycle: 5000 out of 10000
========================================================================================================

Net charge: 0 (F: 0, A: 0, C: 0)
Current Box:  48.30330  24.15165  24.15165 [A]
               0.00000  41.83188  13.94396 [A]
               0.00000   0.00000  39.43948 [A]
Box-lengths:  48.30330  48.30330  48.30330 Box-angles:   60.00000  60.00000  60.00000 [degrees]
Volume: 79692.12514 [A^3]

Loadings per component:
----------------------------------------------------------------------------------------------------------------------------------------------------
Component 0 (methane), current number of integer/fractional/reaction molecules: 0/0/0, density:   0.00000 [kg/m^3]
	absolute adsorption:   0.00000 [mol/uc],         0.0000 [mol/kg],              0.0000 [mg/g]
	                                                 0.0000 [cm^3 STP/g],          0.0000 [cm^3 STP/cm^3]
	excess adsorption:     0.00000 [mol/uc],         0.0000 [mol/kg],              0.0000 [mg/g]
	                                                 0.0000 [cm^3 STP/g],          0.0000 [cm^3 STP/cm^3]
----------------------------------------------------------------------------------------------------------------------------------------------------
Degrees of freedom: 0 0 0 0
Number of Framework-atoms:    636
Number of Adsorbates:           0 (0 integer, 0 fractional, 0 reaction)
Number of Cations:              0 (0 integer, 0 fractional, 0 reaction

Current total potential energy:              -823.3835412219 [K]
	Current Host-Host energy:                     0.0000000000 [K]
	Current Host-Adsorbate energy:               -0.0000000000 [K]
	Current Host-Cation energy:                   0.0000000000 [K]
	Current Adsorbate-Adsorbate energy:           0.0000000000 [K]
	Current Cation-Cation energy:                 0.0000000000 [K]
	Current Adsorbate-Cation energy:              0.0000000000 [K]



Average Properties at Current cycle: 0 out of 50000
========================================================================================

Framework surface area:       0.0000000000 [m^2/g]        0.0000000000 [m^2/cm^3]       0.0000000000 [A^2]
	Framework 0 individual surface area:       0.0000000000 [m^2/g]        0.0000000000 [m^2/cm^3]       0.0000000000 [A^2]
	Cation surface area:                       0.0000000000 [m^2/g]        0.0000000000 [m^2/cm^3]       0.0000000000 [A^2]
Compressibility:               -nan [-]
Henry coefficients
	Component 0: 0 [mol/kg/Pa] (Rosenbluth factor new: 0 [-])
Energy <U_gh>_1-<U_h>_0 from Widom


Current cycle: 0 out of 50000
========================================================================================================

Net charge: 0 (F: 0, A: 0, C: 0)
Current Box:  48.30330  24.15165  24.15165 [A]   Average Box:  48.30330  24.15165  24.15165 [A]
               0.00000  41.83188  13.94396 [A]                  0.00000  41.83188  13.94396 [A]
               0.00000   0.00000  39.43948 [A]                  0.00000   0.00000  39.43948 [A]
Box-lengths:   48.30330  48.30330  48.30330 [A] Average:  48.30330  48.30330  48.30330 [A]
Box-angles:   60.00000  60.00000  60.00000 [degrees] Average:  60.00000  60.00000  60.00000 [degrees]
Volume: 79692.12514 [A^3] Average Volume: 79692.12514 [A^3]

Loadings per component:
----------------------------------------------------------------------------------------------------------------------------------------------------
Component 0 (methane), current number of integer/fractional/reaction molecules: 0/0/0 (avg.   0.00000), density:   0.00000 (avg.   0.00000) [kg/m^3]
	absolute adsorption:   0.00000 (avg.   0.00000) [mol/uc],   0.0000000000 (avg.   0.0000000000) [mol/kg],   0.0000000000 (avg.   0.0000000000) [mg/g]
	                       0.0000000000 (avg.   0.0000000000) [cm^3 STP/g],    0.0000000000 (avg.   0.0000000000) [cm^3 STP/cm^3]
	excess adsorption:     0.0000000000 (avg.   0.0000000000) [mol/uc],   0.0000000000 (avg.   0.0000000000) [mol/kg],   0.0000000000 (avg.   0.0000000000) [mg/g]
	                       0.0000000000 (avg.   0.0000000000) [cm^3 STP/g],    0.0000000000 (avg.   0.0000000000) [cm^3 STP/cm^3]
----------------------------------------------------------------------------------------------------------------------------------------------------
Degrees of freedom: 0 0 0 0
Number of Framework-atoms:    636
Number of Adsorbates:           0 (0 integer, 0 fractional, 0 reaction)
Number of Cations:              0 (0 integer, 0 fractional, 0 reaction)

Current total potential energy:              -823.3835412219 [K]  (avg.        -823.3835412219)
	Current Host-Host energy:                     0.0000000000 [K]  (avg.           0.0000000000)
	Current Host-Adsorbate energy:                0.0000000000 [K]  (avg.           0.0000000000)
	Current Host-Cation energy:                   0.0000000000 [K]  (avg.           0.0000000000)
	Current Adsorbate-Adsorbate energy:           0.0000000000 [K]  (avg.           0.0000000000)
	Current Cation-Cation energy:                 0.0000000000 [K]  (avg.           0.0000000000)
	Current Adsorbate-Cation energy:              0.0000000000 [K]  (avg.           0.0000000000)



Current cycle: 5000 out of 50000
========================================================================================================

Net charge: 0 (F: 0, A: 0, C: 0)
Current Box:  48.30330  24.15165  24.15165 [A]   Average Box:  48.30330  24.15165  24.15165 [A]
               0.00000  41.83188  13.94396 [A]                  0.00000  41.83188  13.94396 [A]
               0.00000   0.00000  39.43948 [A]                  0.00000   0.00000  39.43948 [A]
Box-lengths:   48.30330  48.30330  48.30330 [A] Average:  48.30330  48.30330  48.30330 [A]
Box-angles:   60.00000  60.00000  60.00000 [degrees] Average:  60.00000  60.00000  60.00000 [degrees]
Volume: 79692.12514 [A^3] Average Volume: 79692.12514 [A^3]

Loadings per component:
----------------------------------------------------------------------------------------------------------------------------------------------------
Component 0 (methane), current number of integer/fractional/reaction molecules: 1/0/0 (avg.   0.32494), density:   0.33428 (avg.   0.10862) [kg/m^3]
[...]
	Block[ 2]            0.00000 [K]
	Block[ 3]            0.00000 [K]
	Block[ 4]            0.00000 [K]
	------------------------------------------------------------------------------
	Average              0.00000 [K] +/-            0.00000 [K]

Average Cation Bend angle inversion energy:
===========================================
	Block[ 0]            0.00000 [K]
	Block[ 1]            0.00000 [K]
	Block[ 2]            0.00000 [K]
	Block[ 3]            0.00000 [K]
	Block[ 4]            0.00000 [K]
	------------------------------------------------------------------------------
	Average              0.00000 [K] +/-            0.00000 [K]

Average Cation Torsion energy:
==============================
	Block[ 0]            0.00000 [K]
	Block[ 1]            0.00000 [K]
	Block[ 2]            0.00000 [K]
	Block[ 3]            0.00000 [K]
	Block[ 4]            0.00000 [K]
	------------------------------------------------------------------------------
	Average              0.00000 [K] +/-            0.00000 [K]

Average Cation Improper Torsion energy:
=======================================
	Block[ 0]            0.00000 [K]
	Block[ 1]            0.00000 [K]
	Block[ 2]            0.00000 [K]
	Block[ 3]            0.00000 [K]
	Block[ 4]            0.00000 [K]
	------------------------------------------------------------------------------
	Average              0.00000 [K] +/-            0.00000 [K]

Average Cation Bond-Bond cross term energy:
=================================================
	Block[ 0]            0.00000 [K]
	Block[ 1]            0.00000 [K]
	Block[ 2]            0.00000 [K]
	Block[ 3]            0.00000 [K]
	Block[ 4]            0.00000 [K]
	------------------------------------------------------------------------------
	Average              0.00000 [K] +/-            0.00000 [K]

Average Cation Bend-Bend cross term energy:
===========================================
	Block[ 0]            0.00000 [K]
	Block[ 1]            0.00000 [K]
	Block[ 2]            0.00000 [K]
	Block[ 3]            0.00000 [K]
	Block[ 4]            0.00000 [K]
	------------------------------------------------------------------------------
	Average              0.00000 [K] +/-            0.00000 [K]

Average Cation Bond-Bend cross term energy:
==============================================
	Block[ 0]            0.00000 [K]
	Block[ 1]            0.00000 [K]
	Block[ 2]            0.00000 [K]
	Block[ 3]            0.00000 [K]
	Block[ 4]            0.00000 [K]
	------------------------------------------------------------------------------
	Average              0.00000 [K] +/-            0.00000 [K]

Average Cation Bond-Torsion cross term energy:
==============================================
	Block[ 0]            0.00000 [K]
	Block[ 1]            0.00000 [K]
	Block[ 2]            0.00000 [K]
	Block[ 3]            0.00000 [K]
	Block[ 4]            0.00000 [K]
	------------------------------------------------------------------------------
	Average              0.00000 [K] +/-            0.00000 [K]

Average Cation Bend-Torsion cross term energy:
==============================================
	Block[ 0]            0.00000 [K]
	Block[ 1]            0.00000 [K]
	Block[ 2]            0.00000 [K]
	Block[ 3]            0.00000 [K]
	Block[ 4]            0.00000 [K]
	------------------------------------------------------------------------------
	Average              0.00000 [K] +/-            0.00000 [K]

Average Cation Intra Van der Waals energy:
==========================================
	Block[ 0]            0.00000 [K]
	Block[ 1]            0.00000 [K]
	Block[ 2]            0.00000 [K]
	Block[ 3]            0.00000 [K]
	Block[ 4]            0.00000 [K]
	------------------------------------------------------------------------------
	Average              0.00000 [K] +/-            0.00000 [K]

Average Cation Intra charge-charge Coulomb energy:
====================================
	Block[ 0]            0.00000 [K]
	Block[ 1]            0.00000 [K]
	Block[ 2]            0.00000 [K]
	Block[ 3]            0.00000 [K]
	Block[ 4]            0.00000 [K]
	------------------------------------------------------------------------------
	Average              0.00000 [K] +/-            0.00000 [K]

Average Cation Intra charge-bonddipole Coulomb energy:
====================================
	Block[ 0]            0.00000 [K]
	Block[ 1]            0.00000 [K]
	Block[ 2]            0.00000 [K]
	Block[ 3]            0.00000 [K]
	Block[ 4]            0.00000 [K]
	------------------------------------------------------------------------------
	Average              0.00000 [K] +/-            0.00000 [K]

Average Cation Intra bonddipole-bonddipole Coulomb energy:
====================================
	Block[ 0]            0.00000 [K]
	Block[ 1]            0.00000 [K]
	Block[ 2]            0.00000 [K]
	Block[ 3]            0.00000 [K]
	Block[ 4]            0.00000 [K]
	------------------------------------------------------------------------------
	Average              0.00000 [K] +/-            0.00000 [K]

Average Host-Host energy:
=========================
	Block[ 0] 0.00000            Van der Waals: 0.00000            Coulomb: 0.00000            [K]
	Block[ 1] 0.00000            Van der Waals: 0.00000            Coulomb: 0.00000            [K]
	Block[ 2] 0.00000            Van der Waals: 0.00000            Coulomb: 0.00000            [K]
	Block[ 3] 0.00000            Van der Waals: 0.00000            Coulomb: 0.00000            [K]
	Block[ 4] 0.00000            Van der Waals: 0.00000            Coulomb: 0.00000            [K]
	------------------------------------------------------------------------------
	Average   0.00000            Van der Waals: 0.000000           Coulomb: 0.00000            [K]
	      +/- 0.00000                       +/- 0.000000                +/- 0.00000            [K]

Average Adsorbate-Adsorbate energy:
===================================
	Block[ 0] -0.10363           Van der Waals: -0.10363           Coulomb: 0.00000            [K]
	Block[ 1] -0.12787           Van der Waals: -0.12787           Coulomb: 0.00000            [K]
	Block[ 2] -0.10967           Van der Waals: -0.10967           Coulomb: 0.00000            [K]
	Block[ 3] -0.10839           Van der Waals: -0.10839           Coulomb: 0.00000            [K]
	Block[ 4] -0.08752           Van der Waals: -0.08752           Coulomb: 0.00000            [K]
	------------------------------------------------------------------------------
	Average   -0.10742           Van der Waals: -0.107415          Coulomb: 0.00000            [K]
	      +/- 0.02584                       +/- 0.025839                +/- 0.00000            [K]

Average Cation-Cation energy:
=============================
	Block[ 0] 0.00000            Van der Waals: 0.00000            Coulomb: 0.00000            [K]
	Block[ 1] 0.00000            Van der Waals: 0.00000            Coulomb: 0.00000            [K]
	Block[ 2] 0.00000            Van der Waals: 0.00000            Coulomb: 0.00000            [K]
	Block[ 3] 0.00000            Van der Waals: 0.00000            Coulomb: 0.00000            [K]
	Block[ 4] 0.00000            Van der Waals: 0.00000            Coulomb: 0.00000            [K]
	------------------------------------------------------------------------------
	Average   0.00000            Van der Waals: 0.000000           Coulomb: 0.00000            [K]
	      +/- 0.00000                       +/- 0.000000                +/- 0.00000            [K]

Average Host-Adsorbate energy:
==============================
	Block[ 0] -209.68869         Van der Waals: -209.68869         Coulomb: 0.00000            [K]
	Block[ 1] -214.19061         Van der Waals: -214.19061         Coulomb: 0.00000            [K]
	Block[ 2] -213.35303         Van der Waals: -213.35303         Coulomb: 0.00000            [K]
	Block[ 3] -210.82837         Van der Waals: -210.82837         Coulomb: 0.00000            [K]
	Block[ 4] -215.24002         Van der Waals: -215.24002         Coulomb: 0.00000            [K]
	------------------------------------------------------------------------------
	Average   -212.66015         Van der Waals: -212.660146        Coulomb: 0.00000            [K]
	      +/- 4.16299                       +/- 4.162991                +/- 0.00000            [K]

Average Host-Cation energy:
===========================
	Block[ 0] 0.00000            Van der Waals: 0.00000            Coulomb: 0.00000            [K]
	Block[ 1] 0.00000            Van der Waals: 0.00000            Coulomb: 0.00000            [K]
	Block[ 2] 0.00000            Van der Waals: 0.00000            Coulomb: 0.00000            [K]
	Block[ 3] 0.00000            Van der Waals: 0.00000            Coulomb: 0.00000            [K]
	Block[ 4] 0.00000            Van der Waals: 0.00000            Coulomb: 0.00000            [K]
	------------------------------------------------------------------------------
	Average   0.00000            Van der Waals: 0.000000           Coulomb: 0.00000            [K]
	      +/- 0.00000                       +/- 0.000000                +/- 0.00000            [K]

Average Adsorbate-Cation energy:
================================
	Block[ 0] 0.00000            Van der Waals: 0.00000            Coulomb: 0.00000            [K]
	Block[ 1] 0.00000            Van der Waals: 0.00000            Coulomb: 0.00000            [K]
	Block[ 2] 0.00000            Van der Waals: 0.00000            Coulomb: 0.00000            [K]
	Block[ 3] 0.00000            Van der Waals: 0.00000            Coulomb: 0.00000            [K]
	Block[ 4] 0.00000            Van der Waals: 0.00000            Coulomb: 0.00000            [K]
	------------------------------------------------------------------------------
	Average   0.00000            Van der Waals: 0.000000           Coulomb: 0.00000            [K]
	      +/- 0.00000                       +/- 0.000000                +/- 0.00000            [K]

Host polarization energy:
=======================
	Block[ 0]            0.00000 [K]
	Block[ 1]            0.00000 [K]
	Block[ 2]            0.00000 [K]
	Block[ 3]            0.00000 [K]
	Block[ 4]            0.00000 [K]
	------------------------------------------------------------------------------
	Average              0.00000 [K] +/-            0.00000 [K]

Adsorbate polarization energy:
=======================
	Block[ 0]            0.00000 [K]
	Block[ 1]            0.00000 [K]
	Block[ 2]            0.00000 [K]
	Block[ 3]            0.00000 [K]
	Block[ 4]            0.00000 [K]
	------------------------------------------------------------------------------
	Average              0.00000 [K] +/-            0.00000 [K]

Cation polarization energy:
=======================
	Block[ 0]            0.00000 [K]
	Block[ 1]            0.00000 [K]
	Block[ 2]            0.00000 [K]
	Block[ 3]            0.00000 [K]
	Block[ 4]            0.00000 [K]
	------------------------------------------------------------------------------
	Average              0.00000 [K] +/-            0.00000 [K]

Host back-polarization energy:
=======================
	Block[ 0]            0.00000 [K]
	Block[ 1]            0.00000 [K]
	Block[ 2]            0.00000 [K]
	Block[ 3]            0.00000 [K]
	Block[ 4]            0.00000 [K]
	------------------------------------------------------------------------------
	Average              0.00000 [K] +/-            0.00000 [K]

Adsorbate back-polarization energy:
=======================
	Block[ 0]            0.00000 [K]
	Block[ 1]            0.00000 [K]
	Block[ 2]            0.00000 [K]
	Block[ 3]            0.00000 [K]
	Block[ 4]            0.00000 [K]
	------------------------------------------------------------------------------
	Average              0.00000 [K] +/-            0.00000 [K]

Cation back-polarization energy:
=======================
	Block[ 0]            0.00000 [K]
	Block[ 1]            0.00000 [K]
	Block[ 2]            0.00000 [K]
	Block[ 3]            0.00000 [K]
	Block[ 4]            0.00000 [K]
	------------------------------------------------------------------------------
	Average              0.00000 [K] +/-            0.00000 [K]

Tail-correction energy:
=======================
	Block[ 0]         -826.06150 [K]
	Block[ 1]         -826.05497 [K]
	Block[ 2]         -826.04263 [K]
	Block[ 3]         -826.05251 [K]
	Block[ 4]         -826.10907 [K]
	------------------------------------------------------------------------------
	Average           -826.06414 [K] +/-            0.04654 [K]

Distance-constraints energy:
=======================
	Block[ 0]            0.00000 [K]
	Block[ 1]            0.00000 [K]
	Block[ 2]            0.00000 [K]
	Block[ 3]            0.00000 [K]
	Block[ 4]            0.00000 [K]
	------------------------------------------------------------------------------
	Average              0.00000 [K] +/-            0.00000 [K]

Angle-constraints energy:
=======================
	Block[ 0]            0.00000 [K]
	Block[ 1]            0.00000 [K]
	Block[ 2]            0.00000 [K]
	Block[ 3]            0.00000 [K]
	Block[ 4]            0.00000 [K]
	------------------------------------------------------------------------------
	Average              0.00000 [K] +/-            0.00000 [K]

Dihedral-constraints energy:
=======================
	Block[ 0]            0.00000 [K]
	Block[ 1]            0.00000 [K]
	Block[ 2]            0.00000 [K]
	Block[ 3]            0.00000 [K]
	Block[ 4]            0.00000 [K]
	------------------------------------------------------------------------------
	Average              0.00000 [K] +/-            0.00000 [K]

Inversion-bend constraints energy:
=======================
	Block[ 0]            0.00000 [K]
	Block[ 1]            0.00000 [K]
	Block[ 2]            0.00000 [K]
	Block[ 3]            0.00000 [K]
	Block[ 4]            0.00000 [K]
	------------------------------------------------------------------------------
	Average              0.00000 [K] +/-            0.00000 [K]

Out-of-plane-distance constraints energy:
=======================
	Block[ 0]            0.00000 [K]
	Block[ 1]            0.00000 [K]
	Block[ 2]            0.00000 [K]
	Block[ 3]            0.00000 [K]
	Block[ 4]            0.00000 [K]
	------------------------------------------------------------------------------
	Average              0.00000 [K] +/-            0.00000 [K]

Exclusion-constraints energy:
=======================
	Block[ 0]            0.00000 [K]
	Block[ 1]            0.00000 [K]
	Block[ 2]            0.00000 [K]
	Block[ 3]            0.00000 [K]
	Block[ 4]            0.00000 [K]
	------------------------------------------------------------------------------
	Average              0.00000 [K] +/-            0.00000 [K]

Total energy:
=============
	Block[ 0]        -1035.85382 [K]
	Block[ 1]        -1040.37344 [K]
	Block[ 2]        -1039.50534 [K]
	Block[ 3]        -1036.98927 [K]
	Block[ 4]        -1041.43662 [K]
	------------------------------------------------------------------------------
	Average          -1038.83170 [K] +/-            4.18365 [K]

Number of molecules:
====================

Component 0 [methane]
-------------------------------------------------------------
	Block[ 0] 0.32640            [-]
	Block[ 1] 0.32560            [-]
	Block[ 2] 0.32410            [-]
	Block[ 3] 0.32530            [-]
	Block[ 4] 0.33220            [-]
	------------------------------------------------------------------------------
	Average                                      0.3267200000 +/-       0.0056757731 [-]
	Average loading absolute [molecules/unit cell]        0.3267200000 +/-       0.0056757731 [-]
	Average loading absolute [mol/kg framework]          0.0538067197 +/-       0.0009347292 [-]
	Average loading absolute [milligram/gram framework]          0.8631921485 +/-       0.0149953561 [-]
	Average loading absolute [cm^3 (STP)/gr framework]          1.2060225104 +/-       0.0209509981 [-]
	Average loading absolute [cm^3 (STP)/cm^3 framework]          0.1525907538 +/-       0.0026508034 [-]

	Block[ 0] 0.32640            [-]
	Block[ 1] 0.32560            [-]
	Block[ 2] 0.32410            [-]
	Block[ 3] 0.32530            [-]
	Block[ 4] 0.33220            [-]
	------------------------------------------------------------------------------
	Average                                      0.3267200000 +/-       0.0056757731 [-]
	Average loading excess [molecules/unit cell]        0.3267200000 +/-       0.0056757731 [-]
	Average loading excess [mol/kg framework]          0.0538067197 +/-       0.0009347292 [-]
	Average loading excess [milligram/gram framework]          0.8631921485 +/-       0.0149953561 [-]
	Average loading excess [cm^3 (STP)/gr framework]          1.2060225104 +/-       0.0209509981 [-]
	Average loading excess [cm^3 (STP)/cm^3 framework]          0.1525907538 +/-       0.0026508034 [-]


Average Widom Rosenbluth factor:
================================
	Block[ 0] 0 [-]
	Block[ 1] 0 [-]
	Block[ 2] 0 [-]
	Block[ 3] 0 [-]
	Block[ 4] 0 [-]
	------------------------------------------------------------------------------
	[methane] Average Widom Rosenbluth-weight:   0 +/- 0.000000 [-]

Average Widom chemical potential:
=================================
	Block[ 0] 0 [-]
	Block[ 1] 0 [-]
	Block[ 2] 0 [-]
	Block[ 3] 0 [-]
	Block[ 4] 0 [-]
	------------------------------------------------------------------------------
	[methane] Average chemical potential:   0 +/- 0.000000 [K]

Average Widom Ideal-gas contribution:
=====================================
	Block[ 0] 0 [-]
	Block[ 1] 0 [-]
	Block[ 2] 0 [-]
	Block[ 3] 0 [-]
	Block[ 4] 0 [-]
	------------------------------------------------------------------------------
	[methane] Average Widom Ideal-gas chemical potential:   0 +/- 0.000000 [-]

Average Widom excess contribution:
==================================
	Block[ 0] 0 [-]
	Block[ 1] 0 [-]
	Block[ 2] 0 [-]
	Block[ 3] 0 [-]
	Block[ 4] 0 [-]
	------------------------------------------------------------------------------
	[methane] Average Widom excess chemical potential:   0 +/- 0.000000 [-]

Average Gibbs Widom Rosenbluth factor:
======================================
	Block[ 0] 0 [-]
	Block[ 1] 0 [-]
	Block[ 2] 0 [-]
	Block[ 3] 0 [-]
	Block[ 4] 0 [-]
	------------------------------------------------------------------------------
	[methane] Average Gibbs Widom Rosenbluth-weight:   0 +/- 0.000000 [-]

Average Gibbs Widom chemical potential:
=======================================
	Block[ 0] 0 [-]
	Block[ 1] 0 [-]
	Block[ 2] 0 [-]
	Block[ 3] 0 [-]
	Block[ 4] 0 [-]
	------------------------------------------------------------------------------
	[methane] Average Gibbs chemical potential:   0 +/- 0.000000 [K]

Average Gibbs Widom Ideal-gas contribution:
===========================================
	Block[ 0] 0 [-]
	Block[ 1] 0 [-]
	Block[ 2] 0 [-]
	Block[ 3] 0 [-]
	Block[ 4] 0 [-]
	------------------------------------------------------------------------------
	[methane] Average Gibbs Ideal-gas chemical potential:   0 +/- 0.000000 [-]

Average Gibbs Widom excess contribution:
===========================================
	Block[ 0] 0 [-]
	Block[ 1] 0 [-]
	Block[ 2] 0 [-]
	Block[ 3] 0 [-]
	Block[ 4] 0 [-]
	------------------------------------------------------------------------------
	[methane] Average Gibbs excess chemical potential:   0 +/- 0.000000 [-]

Average Henry coefficient:
==========================
	Block[ 0] 0 [mol/kg/Pa]
	Block[ 1] 0 [mol/kg/Pa]
	Block[ 2] 0 [mol/kg/Pa]
	Block[ 3] 0 [mol/kg/Pa]
	Block[ 4] 0 [mol/kg/Pa]
	------------------------------------------------------------------------------
	[methane] Average Henry coefficient:  0 +/- 0 [mol/kg/Pa]

Average adsorption energy <U_gh>_1-<U_h>_0 obtained from Widom-insertion:
(Note: the total heat of adsorption is dH=<U_gh>_1-<U_h>_0 - <U_g> - RT)
=========================================================================

Simulation finished,  0 warnings


Fri May 14 23:27:47 2021
Simulation finished on Friday, May 14.
The end time was 11:27 PM.

