 Entering Gaussian System, Link 0=g16
 Input=anion_1.com
 Output=anion_1.log
 Initial command:
 /usr/local/g16/l1.exe "/home/ycw79/xtb_test/mol_calc/Gau-4131274.inp" -scrdir="/home/ycw79/xtb_test/mol_calc/"
 Entering Link 1 = /usr/local/g16/l1.exe PID=   4131276.
  
 Copyright (c) 1988-2019, Gaussian, Inc.  All Rights Reserved.
  
 This is part of the Gaussian(R) 16 program.  It is based on
 the Gaussian(R) 09 system (copyright 2009, Gaussian, Inc.),
 the Gaussian(R) 03 system (copyright 2003, Gaussian, Inc.),
 the Gaussian(R) 98 system (copyright 1998, Gaussian, Inc.),
 the Gaussian(R) 94 system (copyright 1995, Gaussian, Inc.),
 the Gaussian 92(TM) system (copyright 1992, Gaussian, Inc.),
 the Gaussian 90(TM) system (copyright 1990, Gaussian, Inc.),
 the Gaussian 88(TM) system (copyright 1988, Gaussian, Inc.),
 the Gaussian 86(TM) system (copyright 1986, Carnegie Mellon
 University), and the Gaussian 82(TM) system (copyright 1983,
 Carnegie Mellon University). Gaussian is a federally registered
 trademark of Gaussian, Inc.
  
 This software contains proprietary and confidential information,
 including trade secrets, belonging to Gaussian, Inc.
  
 This software is provided under written license and may be
 used, copied, transmitted, or stored only in accord with that
 written license.
  
 The following legend is applicable only to US Government
 contracts under FAR:
  
                    RESTRICTED RIGHTS LEGEND
  
 Use, reproduction and disclosure by the US Government is
 subject to restrictions as set forth in subparagraphs (a)
 and (c) of the Commercial Computer Software - Restricted
 Rights clause in FAR 52.227-19.
  
 Gaussian, Inc.
 340 Quinnipiac St., Bldg. 40, Wallingford CT 06492
  
  
 ---------------------------------------------------------------
 Warning -- This program may not be used in any manner that
 competes with the business of Gaussian, Inc. or will provide
 assistance to any competitor of Gaussian, Inc.  The licensee
 of this program is prohibited from giving any competitor of
 Gaussian, Inc. access to this program.  By using this program,
 the user acknowledges that Gaussian, Inc. is engaged in the
 business of creating and licensing software in the field of
 computational chemistry and represents and warrants to the
 licensee that it is not a competitor of Gaussian, Inc. and that
 it will not use this program in any manner prohibited above.
 ---------------------------------------------------------------
  

 Cite this work as:
 Gaussian 16, Revision C.01,
 M. J. Frisch, G. W. Trucks, H. B. Schlegel, G. E. Scuseria, 
 M. A. Robb, J. R. Cheeseman, G. Scalmani, V. Barone, 
 G. A. Petersson, H. Nakatsuji, X. Li, M. Caricato, A. V. Marenich, 
 J. Bloino, B. G. Janesko, R. Gomperts, B. Mennucci, H. P. Hratchian, 
 J. V. Ortiz, A. F. Izmaylov, J. L. Sonnenberg, D. Williams-Young, 
 F. Ding, F. Lipparini, F. Egidi, J. Goings, B. Peng, A. Petrone, 
 T. Henderson, D. Ranasinghe, V. G. Zakrzewski, J. Gao, N. Rega, 
 G. Zheng, W. Liang, M. Hada, M. Ehara, K. Toyota, R. Fukuda, 
 J. Hasegawa, M. Ishida, T. Nakajima, Y. Honda, O. Kitao, H. Nakai, 
 T. Vreven, K. Throssell, J. A. Montgomery, Jr., J. E. Peralta, 
 F. Ogliaro, M. J. Bearpark, J. J. Heyd, E. N. Brothers, K. N. Kudin, 
 V. N. Staroverov, T. A. Keith, R. Kobayashi, J. Normand, 
 K. Raghavachari, A. P. Rendell, J. C. Burant, S. S. Iyengar, 
 J. Tomasi, M. Cossi, J. M. Millam, M. Klene, C. Adamo, R. Cammi, 
 J. W. Ochterski, R. L. Martin, K. Morokuma, O. Farkas, 
 J. B. Foresman, and D. J. Fox, Gaussian, Inc., Wallingford CT, 2019.
 
 ******************************************
 Gaussian 16:  ES64L-G16RevC.01  3-Jul-2019
                19-Jan-2023 
 ******************************************
 %oldchk=mol_1.chk
 %chk=anion_1.chk
 %nprocs=16
 Will use up to   16 processors via shared memory.
 %cpu=0,2,4,6,8,10,12,14,16,18,20,22,24,26,28,30
 SetSPE:  set environment variable "MP_BIND" = "yes"
 SetSPE:  set environment variable "MP_BLIST" = "0,2,4,6,8,10,12,14,16,18,20,22,24,26,28,30"
 Will use up to   16 processors via shared memory.
 %mem=120GB
 Copying data from "mol_1.chk" to current chk file "anion_1.chk"
 IOpt=  2 FromEx=T IUOpen= 4 IOptOp= 5 NList=   0 IFRang= 0 IUIn= 4 IUOut= 2.
 -----------------------------
 # b3lyp/6-31g(d,p) geom=check
 -----------------------------
 1/29=2,38=1,172=1/1;
 2/12=2,40=1/2;
 3/5=1,6=6,7=101,11=2,14=-4,25=1,30=1,74=-5/1,2,3;
 4//1;
 5/5=2,38=5/2;
 6/7=2,8=2,9=2,10=2,28=1/1;
 99/5=1,9=1/99;
 ----
 test
 ----
 Structure from the checkpoint file:  "anion_1.chk"
 Charge = -1 Multiplicity = 2
 Redundant internal coordinates found in file.  (old form).
 C,0,0.686202351,-0.0000386652,0.3312489667
 C,0,-0.68621499,-0.0000788833,-0.3312525735
 F,0,-1.3638889904,-1.1053438728,0.0788364413
 F,0,-1.3639638419,1.105135608,0.0788536272
 F,0,1.3639444115,-1.1052606828,-0.0788494104
 F,0,1.3638844377,1.1052178935,-0.0788460111
 H,0,0.6083070746,-0.0000422604,1.4239842619
 H,0,-0.6083216802,-0.0000661574,-1.4239878968
 Recover connectivity data from disk.
                           ----------------------------
                           !    Current Parameters    !
                           ! (Angstroms and Degrees)  !
 --------------------------                            --------------------------
 ! Name  Definition              Value                                          !
 --------------------------------------------------------------------------------
 ! R1    R(1,2)                  1.524                                          !
 ! R2    R(1,5)                  1.3598                                         !
 ! R3    R(1,6)                  1.3598                                         !
 ! R4    R(1,7)                  1.0955                                         !
 ! R5    R(2,3)                  1.3598                                         !
 ! R6    R(2,4)                  1.3598                                         !
 ! R7    R(2,8)                  1.0955                                         !
 ! A1    A(2,1,5)              108.5254                                         !
 ! A2    A(2,1,6)              108.5257                                         !
 ! A3    A(2,1,7)              111.6904                                         !
 ! A4    A(5,1,6)              108.7412                                         !
 ! A5    A(5,1,7)              109.6493                                         !
 ! A6    A(6,1,7)              109.6494                                         !
 ! A7    A(1,2,3)              108.5255                                         !
 ! A8    A(1,2,4)              108.5256                                         !
 ! A9    A(1,2,8)              111.6905                                         !
 ! A10   A(3,2,4)              108.7412                                         !
 ! A11   A(3,2,8)              109.6494                                         !
 ! A12   A(4,2,8)              109.6493                                         !
 ! D1    D(5,1,2,3)             61.9874                                         !
 ! D2    D(5,1,2,4)            179.9994                                         !
 ! D3    D(5,1,2,8)            -59.0067                                         !
 ! D4    D(6,1,2,3)            179.9995                                         !
 ! D5    D(6,1,2,4)            -61.9885                                         !
 ! D6    D(6,1,2,8)             59.0054                                         !
 ! D7    D(7,1,2,3)            -59.0064                                         !
 ! D8    D(7,1,2,4)             59.0056                                         !
 ! D9    D(7,1,2,8)            179.9995                                         !
 --------------------------------------------------------------------------------
                          Input orientation:                          
 ---------------------------------------------------------------------
 Center     Atomic      Atomic             Coordinates (Angstroms)
 Number     Number       Type             X           Y           Z
 ---------------------------------------------------------------------
      1          6           0        0.686202   -0.000039    0.331249
      2          6           0       -0.686215   -0.000079   -0.331253
      3          9           0       -1.363889   -1.105344    0.078836
      4          9           0       -1.363964    1.105136    0.078854
      5          9           0        1.363944   -1.105261   -0.078849
      6          9           0        1.363884    1.105218   -0.078846
      7          1           0        0.608307   -0.000042    1.423984
      8          1           0       -0.608322   -0.000066   -1.423988
 ---------------------------------------------------------------------
                    Distance matrix (angstroms):
                    1          2          3          4          5
     1  C    0.000000
     2  C    1.523955   0.000000
     3  F    2.342709   1.359789   0.000000
     4  F    2.342711   1.359790   2.210479   0.000000
     5  F    1.359791   2.342709   2.732387   3.514570   0.000000
     6  F    1.359788   2.342712   3.514569   2.732403   2.210479
     7  H    1.095508   2.180973   2.630717   2.630712   2.012711
     8  H    2.180974   1.095508   2.012710   2.012709   2.630720
                    6          7          8
     6  F    0.000000
     7  H    2.012709   0.000000
     8  H    2.630714   3.096955   0.000000
 Stoichiometry    C2H2F4(1-,2)
 Framework group  C1[X(C2H2F4)]
 Deg. of freedom    18
 Full point group                 C1      NOp   1
 Largest Abelian subgroup         C1      NOp   1
 Largest concise Abelian subgroup C1      NOp   1
                         Standard orientation:                         
 ---------------------------------------------------------------------
 Center     Atomic      Atomic             Coordinates (Angstroms)
 Number     Number       Type             X           Y           Z
 ---------------------------------------------------------------------
      1          6           0       -0.689060    0.000004   -0.325277
      2          6           0        0.689060    0.000001    0.325278
      3          9           0        1.363179   -1.105242   -0.090688
      4          9           0        1.363188    1.105238   -0.090695
      5          9           0       -1.363181   -1.105240    0.090687
      6          9           0       -1.363187    1.105238    0.090695
      7          1           0       -0.620660    0.000008   -1.418648
      8          1           0        0.620662    0.000007    1.418649
 ---------------------------------------------------------------------
 Rotational constants (GHZ):           5.0529324           3.1466328           2.0522743
 Standard basis: 6-31G(d,p) (6D, 7F)
 There are   100 symmetry adapted cartesian basis functions of A   symmetry.
 There are   100 symmetry adapted basis functions of A   symmetry.
   100 basis functions,   182 primitive gaussians,   100 cartesian basis functions
    26 alpha electrons       25 beta electrons
       nuclear repulsion energy       265.4835562702 Hartrees.
 NAtoms=    8 NActive=    8 NUniq=    8 SFac= 1.00D+00 NAtFMM=   60 NAOKFM=F Big=F
 Integral buffers will be    131072 words long.
 Raffenetti 2 integral format.
 Two-electron integral symmetry is turned on.
 One-electron integrals computed using PRISM.
 NBasis=   100 RedAO= T EigKep=  2.46D-03  NBF=   100
 NBsUse=   100 1.00D-06 EigRej= -1.00D+00 NBFU=   100
 ExpMin= 1.61D-01 ExpMax= 7.00D+03 ExpMxC= 1.05D+03 IAcc=3 IRadAn=         5 AccDes= 0.00D+00
 Harris functional with IExCor=  402 and IRadAn=       5 diagonalized for initial guess.
 HarFok:  IExCor=  402 AccDes= 0.00D+00 IRadAn=         5 IDoV= 1 UseB2=F ITyADJ=14
 ICtDFT=  3500011 ScaDFX=  1.000000  1.000000  1.000000  1.000000
 FoFCou: FMM=F IPFlag=           0 FMFlag=      100000 FMFlg1=           0
         NFxFlg=           0 DoJE=T BraDBF=F KetDBF=T FulRan=T
         wScrn=  0.000000 ICntrl=       500 IOpCl=  0 I1Cent=   200000004 NGrid=           0
         NMat0=    1 NMatS0=      1 NMatT0=    0 NMatD0=    1 NMtDS0=    0 NMtDT0=    0
 Petite list used in FoFCou.
 Initial guess <Sx>= 0.0000 <Sy>= 0.0000 <Sz>= 0.5000 <S**2>= 0.7500 S= 0.5000
 Keep R1 and R2 ints in memory in canonical form, NReq=40331656.
 Requested convergence on RMS density matrix=1.00D-08 within 128 cycles.
 Requested convergence on MAX density matrix=1.00D-06.
 Requested convergence on             energy=1.00D-06.
 No special actions if energy rises.
 Integral accuracy reduced to 1.0D-05 until final iterations.
 Initial convergence to 1.0D-05 achieved.  Increase integral accuracy.
 SCF Done:  E(UB3LYP) =  -476.582554651     A.U. after   21 cycles
            NFock= 21  Conv=0.45D-08     -V/T= 2.0043
 <Sx>= 0.0000 <Sy>= 0.0000 <Sz>= 0.5000 <S**2>= 0.7513 S= 0.5007
 <L.S>=  0.00000000000    
 Annihilation of the first spin contaminant:
 S**2 before annihilation     0.7513,   after     0.7500

 **********************************************************************

            Population analysis using the SCF Density.

 **********************************************************************

 Orbital symmetries:
 Alpha Orbitals:
       Occupied  (A) (A) (A) (A) (A) (A) (A) (A) (A) (A) (A) (A)
                 (A) (A) (A) (A) (A) (A) (A) (A) (A) (A) (A) (A)
                 (A) (A)
       Virtual   (A) (A) (A) (A) (A) (A) (A) (A) (A) (A) (A) (A)
                 (A) (A) (A) (A) (A) (A) (A) (A) (A) (A) (A) (A)
                 (A) (A) (A) (A) (A) (A) (A) (A) (A) (A) (A) (A)
                 (A) (A) (A) (A) (A) (A) (A) (A) (A) (A) (A) (A)
                 (A) (A) (A) (A) (A) (A) (A) (A) (A) (A) (A) (A)
                 (A) (A) (A) (A) (A) (A) (A) (A) (A) (A) (A) (A)
                 (A) (A)
 Beta  Orbitals:
       Occupied  (A) (A) (A) (A) (A) (A) (A) (A) (A) (A) (A) (A)
                 (A) (A) (A) (A) (A) (A) (A) (A) (A) (A) (A) (A)
                 (A)
       Virtual   (A) (A) (A) (A) (A) (A) (A) (A) (A) (A) (A) (A)
                 (A) (A) (A) (A) (A) (A) (A) (A) (A) (A) (A) (A)
                 (A) (A) (A) (A) (A) (A) (A) (A) (A) (A) (A) (A)
                 (A) (A) (A) (A) (A) (A) (A) (A) (A) (A) (A) (A)
                 (A) (A) (A) (A) (A) (A) (A) (A) (A) (A) (A) (A)
                 (A) (A) (A) (A) (A) (A) (A) (A) (A) (A) (A) (A)
                 (A) (A) (A)
 The electronic state is 2-A.
 Alpha  occ. eigenvalues --  -24.43800 -24.43800 -24.43800 -24.43800 -10.05303
 Alpha  occ. eigenvalues --  -10.05278  -0.99946  -0.98462  -0.94224  -0.93270
 Alpha  occ. eigenvalues --   -0.49217  -0.40324  -0.31502  -0.30822  -0.29673
 Alpha  occ. eigenvalues --   -0.27487  -0.26285  -0.18863  -0.16967  -0.16789
 Alpha  occ. eigenvalues --   -0.15799  -0.15114  -0.13683  -0.12598  -0.05946
 Alpha  occ. eigenvalues --    0.28364
 Alpha virt. eigenvalues --    0.33253   0.35833   0.38586   0.45419   0.49189
 Alpha virt. eigenvalues --    0.52893   0.74234   0.76311   0.76415   0.77612
 Alpha virt. eigenvalues --    0.84433   0.86187   1.02499   1.05384   1.07353
 Alpha virt. eigenvalues --    1.18245   1.26697   1.29230   1.35034   1.36431
 Alpha virt. eigenvalues --    1.37488   1.47380   1.55703   1.56128   1.57553
 Alpha virt. eigenvalues --    1.59172   1.59293   1.63259   1.63884   1.67108
 Alpha virt. eigenvalues --    1.78268   1.80523   1.88489   1.94127   1.98152
 Alpha virt. eigenvalues --    2.01598   2.02056   2.04507   2.07247   2.09410
 Alpha virt. eigenvalues --    2.09456   2.13701   2.13815   2.24706   2.25113
 Alpha virt. eigenvalues --    2.25513   2.29827   2.30666   2.35229   2.36085
 Alpha virt. eigenvalues --    2.44759   2.46303   2.56249   2.57657   2.66167
 Alpha virt. eigenvalues --    2.66429   2.90941   2.97909   3.02010   3.03757
 Alpha virt. eigenvalues --    3.11278   3.17807   3.27200   3.29600   3.29907
 Alpha virt. eigenvalues --    3.35128   3.52806   3.64834   4.23613   4.48738
 Alpha virt. eigenvalues --    4.80971   4.83196   4.84366   5.05364
  Beta  occ. eigenvalues --  -24.43381 -24.43381 -24.43381 -24.43381 -10.04845
  Beta  occ. eigenvalues --  -10.04823  -0.98996  -0.97591  -0.93191  -0.92292
  Beta  occ. eigenvalues --   -0.47600  -0.39519  -0.30959  -0.29026  -0.28938
  Beta  occ. eigenvalues --   -0.25999  -0.25817  -0.17919  -0.16555  -0.16341
  Beta  occ. eigenvalues --   -0.14672  -0.14520  -0.13114  -0.12025  -0.05159
  Beta virt. eigenvalues --    0.33806   0.36175   0.38403   0.39116   0.49170
  Beta virt. eigenvalues --    0.49695   0.54059   0.74674   0.76535   0.78768
  Beta virt. eigenvalues --    0.80247   0.84910   0.86744   1.04068   1.05770
  Beta virt. eigenvalues --    1.07674   1.19009   1.27172   1.30041   1.35404
  Beta virt. eigenvalues --    1.37037   1.38268   1.48119   1.56134   1.56611
  Beta virt. eigenvalues --    1.57875   1.59719   1.60190   1.63826   1.64366
  Beta virt. eigenvalues --    1.67602   1.79076   1.81057   1.89096   1.94572
  Beta virt. eigenvalues --    1.98564   2.02221   2.02344   2.04923   2.07572
  Beta virt. eigenvalues --    2.09506   2.09630   2.13898   2.14045   2.25157
  Beta virt. eigenvalues --    2.25490   2.25752   2.30824   2.31493   2.35493
  Beta virt. eigenvalues --    2.37685   2.45193   2.46884   2.57299   2.57779
  Beta virt. eigenvalues --    2.66704   2.68061   2.91089   2.98250   3.02725
  Beta virt. eigenvalues --    3.04987   3.11847   3.19079   3.28316   3.30875
  Beta virt. eigenvalues --    3.30979   3.36503   3.52955   3.65176   4.24124
  Beta virt. eigenvalues --    4.49916   4.81379   4.84467   4.84808   5.05703
          Condensed to atoms (all electrons):
               1          2          3          4          5          6
     1  C    5.057920   0.559399  -0.078289  -0.078283   0.040581   0.040595
     2  C    0.559399   5.057923   0.040592   0.040582  -0.078283  -0.078288
     3  F   -0.078289   0.040592   9.467590  -0.057267   0.009472  -0.000238
     4  F   -0.078283   0.040582  -0.057267   9.467588  -0.000238   0.009472
     5  F    0.040581  -0.078283   0.009472  -0.000238   9.467593  -0.057267
     6  F    0.040595  -0.078288  -0.000238   0.009472  -0.057267   9.467584
     7  H    0.307934  -0.069008   0.002488   0.002487  -0.047182  -0.047186
     8  H   -0.069008   0.307934  -0.047189  -0.047179   0.002486   0.002489
               7          8
     1  C    0.307934  -0.069008
     2  C   -0.069008   0.307934
     3  F    0.002488  -0.047189
     4  F    0.002487  -0.047179
     5  F   -0.047182   0.002486
     6  F   -0.047186   0.002489
     7  H    0.885032   0.010260
     8  H    0.010260   0.885032
          Atomic-Atomic Spin Densities.
               1          2          3          4          5          6
     1  C    0.772923   0.253002  -0.051061  -0.051056  -0.237012  -0.236999
     2  C    0.253002   0.772926  -0.237001  -0.237011  -0.051056  -0.051061
     3  F   -0.051061  -0.237001   0.335131  -0.022424   0.008647  -0.000631
     4  F   -0.051056  -0.237011  -0.022424   0.335127  -0.000631   0.008647
     5  F   -0.237012  -0.051056   0.008647  -0.000631   0.335131  -0.022424
     6  F   -0.236999  -0.051061  -0.000631   0.008647  -0.022424   0.335125
     7  H    0.010141  -0.005191   0.000450   0.000449   0.000529   0.000525
     8  H   -0.005191   0.010141   0.000522   0.000532   0.000448   0.000451
               7          8
     1  C    0.010141  -0.005191
     2  C   -0.005191   0.010141
     3  F    0.000450   0.000522
     4  F    0.000449   0.000532
     5  F    0.000529   0.000448
     6  F    0.000525   0.000451
     7  H   -0.028918   0.000001
     8  H    0.000001  -0.028918
 Mulliken charges and spin densities:
               1          2
     1  C    0.219149   0.454748
     2  C    0.219148   0.454749
     3  F   -0.337161   0.033632
     4  F   -0.337163   0.033633
     5  F   -0.337163   0.033633
     6  F   -0.337161   0.033632
     7  H   -0.044825  -0.022014
     8  H   -0.044825  -0.022014
 Sum of Mulliken charges =  -1.00000   1.00000
 Mulliken charges and spin densities with hydrogens summed into heavy atoms:
               1          2
     1  C    0.174324   0.432734
     2  C    0.174323   0.432736
     3  F   -0.337161   0.033632
     4  F   -0.337163   0.033633
     5  F   -0.337163   0.033633
     6  F   -0.337161   0.033632
 Electronic spatial extent (au):  <R**2>=            524.2154
 Charge=             -1.0000 electrons
 Dipole moment (field-independent basis, Debye):
    X=             -0.0000    Y=              0.0000    Z=             -0.0000  Tot=              0.0000
 Quadrupole moment (field-independent basis, Debye-Ang):
   XX=            -41.8666   YY=            -40.2981   ZZ=            -32.4522
   XY=             -0.0000   XZ=              0.8185   YZ=              0.0000
 Traceless Quadrupole moment (field-independent basis, Debye-Ang):
   XX=             -3.6610   YY=             -2.0925   ZZ=              5.7535
   XY=             -0.0000   XZ=              0.8185   YZ=              0.0000
 Octapole moment (field-independent basis, Debye-Ang**2):
  XXX=             -0.0000  YYY=             -0.0000  ZZZ=             -0.0000  XYY=             -0.0000
  XXY=             -0.0000  XXZ=              0.0000  XZZ=             -0.0000  YZZ=              0.0000
  YYZ=             -0.0000  XYZ=              0.0000
 Hexadecapole moment (field-independent basis, Debye-Ang**3):
 XXXX=           -295.3291 YYYY=           -173.5619 ZZZZ=            -55.8199 XXXY=             -0.0001
 XXXZ=             -2.8830 YYYX=             -0.0000 YYYZ=              0.0001 ZZZX=             -5.7803
 ZZZY=              0.0001 XXYY=            -87.6099 XXZZ=            -54.6738 YYZZ=            -37.2900
 XXYZ=              0.0000 YYXZ=             -1.4685 ZZXY=              0.0000
 N-N= 2.654835562702D+02 E-N=-1.677442526274D+03  KE= 4.745454188906D+02
                          Isotropic Fermi Contact Couplings
        Atom                 a.u.       MegaHertz       Gauss      10(-4) cm-1
     1  C(13)              0.01011      11.36369       4.05485       3.79052
     2  C(13)              0.01011      11.36382       4.05489       3.79056
     3  F(19)              0.35221    1481.88035     528.77176     494.30208
     4  F(19)              0.35220    1481.84694     528.75984     494.29093
     5  F(19)              0.35220    1481.87279     528.76906     494.29956
     6  F(19)              0.35220    1481.84689     528.75982     494.29092
     7  H(1)              -0.00661     -29.54714     -10.54316      -9.85587
     8  H(1)              -0.00661     -29.54722     -10.54318      -9.85589
 --------------------------------------------------------
       Center         ----  Spin Dipole Couplings  ----
                      3XX-RR        3YY-RR        3ZZ-RR
 --------------------------------------------------------
     1   Atom       -0.202356      0.412328     -0.209972
     2   Atom       -0.202357      0.412329     -0.209973
     3   Atom        0.366523     -0.176404     -0.190118
     4   Atom        0.366530     -0.176417     -0.190113
     5   Atom        0.366525     -0.176406     -0.190119
     6   Atom        0.366528     -0.176415     -0.190113
     7   Atom       -0.033816      0.006116      0.027699
     8   Atom       -0.033816      0.006116      0.027699
 --------------------------------------------------------
                        XY            XZ            YZ
 --------------------------------------------------------
     1   Atom       -0.000002      0.009814      0.000006
     2   Atom       -0.000001      0.009814      0.000011
     3   Atom       -0.273696     -0.244760      0.095300
     4   Atom        0.273686     -0.244771     -0.095299
     5   Atom        0.273698     -0.244763     -0.095301
     6   Atom       -0.273682     -0.244765      0.095297
     7   Atom       -0.000000      0.013152     -0.000001
     8   Atom       -0.000000      0.013152     -0.000002
 --------------------------------------------------------


 ---------------------------------------------------------------------------------
              Anisotropic Spin Dipole Couplings in Principal Axis System
 ---------------------------------------------------------------------------------

       Atom             a.u.   MegaHertz   Gauss  10(-4) cm-1        Axes

              Baa    -0.2167   -29.078   -10.376    -9.699 -0.5649 -0.0000  0.8251
     1 C(13)  Bbb    -0.1956   -26.253    -9.368    -8.757  0.8251 -0.0000  0.5649
              Bcc     0.4123    55.331    19.743    18.456 -0.0000  1.0000  0.0000
 
              Baa    -0.2167   -29.078   -10.376    -9.699 -0.5649 -0.0000  0.8251
     2 C(13)  Bbb    -0.1956   -26.253    -9.368    -8.757  0.8251 -0.0000  0.5649
              Bcc     0.4123    55.331    19.743    18.456 -0.0000  1.0000  0.0000
 
              Baa    -0.2932  -147.230   -52.535   -49.111  0.4740  0.7840  0.4008
     3 F(19)  Bbb    -0.2780  -139.607   -49.815   -46.568  0.1108 -0.5047  0.8561
              Bcc     0.5711   286.837   102.350    95.678  0.8735 -0.3614 -0.3261
 
              Baa    -0.2932  -147.231   -52.536   -49.111 -0.4740  0.7840 -0.4008
     4 F(19)  Bbb    -0.2780  -139.608   -49.815   -46.568  0.1108  0.5047  0.8561
              Bcc     0.5711   286.838   102.351    95.679  0.8735  0.3614 -0.3261
 
              Baa    -0.2932  -147.231   -52.536   -49.111 -0.4740  0.7840 -0.4008
     5 F(19)  Bbb    -0.2780  -139.608   -49.816   -46.568  0.1108  0.5047  0.8561
              Bcc     0.5711   286.839   102.351    95.679  0.8735  0.3614 -0.3261
 
              Baa    -0.2932  -147.229   -52.535   -49.110  0.4740  0.7840  0.4008
     6 F(19)  Bbb    -0.2780  -139.606   -49.815   -46.568  0.1108 -0.5047  0.8561
              Bcc     0.5711   286.835   102.350    95.678  0.8735 -0.3614 -0.3261
 
              Baa    -0.0365   -19.480    -6.951    -6.498  0.9797  0.0000 -0.2007
     7 H(1)   Bbb     0.0061     3.263     1.164     1.089  0.0000  1.0000  0.0000
              Bcc     0.0304    16.216     5.786     5.409  0.2007 -0.0000  0.9797
 
              Baa    -0.0365   -19.480    -6.951    -6.498  0.9797 -0.0000 -0.2007
     8 H(1)   Bbb     0.0061     3.263     1.164     1.089  0.0000  1.0000  0.0001
              Bcc     0.0304    16.217     5.786     5.409  0.2007 -0.0001  0.9797
 

 ---------------------------------------------------------------------------------

 Unable to Open any file for archive entry.
 1\1\GINC-HELIUM\SP\UB3LYP\6-31G(d,p)\C2H2F4(1-,2)\YCW79\19-Jan-2023\0\
 \# b3lyp/6-31g(d,p) geom=check\\test\\-1,2\C,0,0.686202351,-0.00003866
 52,0.3312489667\C,0,-0.68621499,-0.0000788833,-0.3312525735\F,0,-1.363
 8889904,-1.1053438728,0.0788364413\F,0,-1.3639638419,1.105135608,0.078
 8536272\F,0,1.3639444115,-1.1052606828,-0.0788494104\F,0,1.3638844377,
 1.1052178935,-0.0788460111\H,0,0.6083070746,-0.0000422604,1.4239842619
 \H,0,-0.6083216802,-0.0000661574,-1.4239878968\\Version=ES64L-G16RevC.
 01\State=2-A\HF=-476.5825547\S2=0.751325\S2-1=0.\S2A=0.750002\RMSD=4.4
 57e-09\Dipole=0.0000013,0.0000048,0.\Quadrupole=-2.7319122,-1.5556969,
 4.2876091,-0.000019,0.5476408,-0.0000303\PG=C01 [X(C2H2F4)]\\@
 The archive entry for this job was punched.


 THE ... SCIENTISTS WERE WRONG ... THE MOST PERSISTENT PRINCIPLES 
 OF THE UNIVERSE WERE ACCIDENT AND ERROR.

                          -- FRANK HERBERT IN DUNE
 Job cpu time:       0 days  0 hours  0 minutes 35.6 seconds.
 Elapsed time:       0 days  0 hours  0 minutes  2.5 seconds.
 File lengths (MBytes):  RWF=     10 Int=      0 D2E=      0 Chk=      2 Scr=      1
 Normal termination of Gaussian 16 at Thu Jan 19 14:35:31 2023.
