       N       E                     dE             d eps       ncg     rms          ort
DAV:   1     0.737991782312E+02    0.73799E+02   -0.13604E+03    12   0.310E+02
DAV:   2     0.644063384283E+01   -0.67359E+02   -0.64146E+02    12   0.669E+01
DAV:   3    -0.121998834028E+02   -0.18641E+02   -0.18598E+02    12   0.510E+01
DAV:   4    -0.129153773890E+02   -0.71549E+00   -0.71538E+00    12   0.132E+01
DAV:   5    -0.129213032970E+02   -0.59259E-02   -0.59259E-02    12   0.112E+00
SDA:   6    -0.954546622020E+01    0.33758E+01   -0.59259E-02    12   0.290E+02 0.000E+00
CGA:   7    -0.132650061967E+02   -0.37195E+01   -0.35889E+01    12   0.199E+01 0.446E+00
CGA:   8    -0.138212001709E+02   -0.55619E+00   -0.55682E+00    12   0.947E+00-0.102E-01
CGA:   9    -0.140863899396E+02   -0.26519E+00   -0.26500E+00    12   0.322E+00 0.279E-03
CGA:  10    -0.141790543172E+02   -0.92664E-01   -0.93054E-01    12   0.100E+00-0.411E-02
CGA:  11    -0.142072873633E+02   -0.28233E-01   -0.28324E-01    12   0.288E-01-0.100E-02
CGA:  12    -0.142159364507E+02   -0.86491E-02   -0.86767E-02    12   0.799E-02-0.231E-03
CGA:  13    -0.142184019825E+02   -0.24655E-02   -0.24672E-02    12   0.215E-02-0.609E-05
CGA:  14    -0.142191118960E+02   -0.70991E-03   -0.70994E-03    12   0.616E-03 0.144E-05
CGA:  15    -0.142193320883E+02   -0.22019E-03   -0.22024E-03    12   0.202E-03-0.712E-06
CGA:  16    -0.142194087755E+02   -0.76687E-04   -0.76731E-04    12   0.666E-04-0.374E-06
   1 F= -.14229224E+02 E0= -.14229224E+02  d E =-.142292E+02  mag=     0.0000
