       N       E                     dE             d eps       ncg     rms          ort
DAV:   1     0.763637499143E+02    0.76364E+02   -0.14258E+03    12   0.325E+02
DAV:   2     0.670717574971E+01   -0.69657E+02   -0.66613E+02    12   0.763E+01
DAV:   3    -0.937245485407E+01   -0.16080E+02   -0.16063E+02    12   0.500E+01
DAV:   4    -0.101054240978E+02   -0.73297E+00   -0.73279E+00    12   0.118E+01
DAV:   5    -0.101113772153E+02   -0.59531E-02   -0.59531E-02    12   0.963E-01
SDA:   6    -0.501258137897E+01    0.50988E+01   -0.59531E-02    12   0.366E+02 0.000E+00
CGA:   7    -0.978239433300E+01   -0.47698E+01   -0.45810E+01    12   0.264E+01 0.610E+00
CGA:   8    -0.104719186625E+02   -0.68952E+00   -0.69100E+00    12   0.130E+01-0.251E-01
CGA:   9    -0.108175852881E+02   -0.34567E+00   -0.34610E+00    12   0.463E+00-0.826E-02
CGA:  10    -0.109504568108E+02   -0.13287E+00   -0.13376E+00    12   0.160E+00-0.908E-02
CGA:  11    -0.109919445924E+02   -0.41488E-01   -0.41633E-01    12   0.443E-01-0.185E-02
CGA:  12    -0.110047486647E+02   -0.12804E-01   -0.12830E-01    12   0.137E-01-0.220E-03
CGA:  13    -0.110089962667E+02   -0.42476E-02   -0.42486E-02    12   0.445E-02 0.218E-05
CGA:  14    -0.110104518183E+02   -0.14556E-02   -0.14554E-02    12   0.146E-02 0.299E-05
CGA:  15    -0.110109533064E+02   -0.50149E-03   -0.50174E-03    12   0.482E-03-0.257E-05
CGA:  16    -0.110111218866E+02   -0.16858E-03   -0.16878E-03    12   0.154E-03-0.167E-05
CGA:  17    -0.110111797562E+02   -0.57870E-04   -0.57963E-04    12   0.496E-04-0.615E-06
CGA:  18    -0.110111986531E+02   -0.18897E-04   -0.18922E-04    12   0.159E-04-0.163E-06
CGA:  19    -0.110112047812E+02   -0.61280E-05   -0.61134E-05    12   0.471E-05 0.109E-06
CGA:  20    -0.110112066566E+02   -0.18754E-05   -0.18649E-05    12   0.141E-05 0.752E-07
CGA:  21    -0.110112072240E+02   -0.56746E-06   -0.55972E-06    12   0.419E-06 0.614E-07
   1 F= -.11011207E+02 E0= -.11011207E+02  d E =-.110112E+02  mag=    -0.0000
       N       E                     dE             d eps       ncg     rms          ort
SDA:   1     0.379247268846E+03    0.39026E+03    0.00000E+00    12   0.486E+03 0.000E+00
CGA:   2     0.255098110826E+03   -0.12415E+03   -0.12781E+03    12   0.264E+03 0.559E+02
CGA:   3     0.123230480306E+03   -0.13187E+03   -0.13471E+03    12   0.405E+03-0.503E+01
CGA:   4     0.767091300436E+02   -0.46521E+02   -0.81856E+02    12   0.194E+03 0.202E+03
CGA:   5     0.353505808372E+02   -0.41359E+02   -0.58386E+02    12   0.634E+02 0.874E+02
CGA:   6     0.133464010103E+02   -0.22004E+02   -0.22994E+02    12   0.204E+02 0.172E+02
CGA:   7     0.160763244011E+02    0.27299E+01   -0.17170E+02    12   0.789E+02-0.205E+02
CGA:   8     0.850427103487E+00   -0.15226E+02   -0.92395E+01    12   0.179E+02 0.482E+02
CGA:   9    -0.181956673261E+01   -0.26700E+01   -0.20386E+01    12   0.931E+01 0.986E+00
CGA:  10    -0.349212157886E+01   -0.16726E+01   -0.15732E+01    12   0.603E+01 0.250E+00
CGA:  11    -0.373319220457E+01   -0.24107E+00   -0.16546E+00    12   0.331E+01 0.417E+01
CGA:  12    -0.399266679994E+01   -0.25947E+00   -0.20503E+00    12   0.100E+01 0.719E+00
CGA:  13    -0.427548103377E+01   -0.28281E+00   -0.24783E+00    12   0.364E+01-0.648E-01
CGA:  14    -0.434213896719E+01   -0.66658E-01   -0.49041E-01    12   0.493E+01 0.152E+01
CGA:  15    -0.424541100174E+01    0.96728E-01   -0.15509E+00    12   0.195E+02-0.192E+02
CGA:  16    -0.431253369901E+01   -0.67123E-01   -0.11572E+01    12   0.167E+02-0.148E+02
CGA:  17    -0.482006743887E+01   -0.50753E+00   -0.73300E+00    12   0.419E+01-0.701E+01
CGA:  18    -0.521672223186E+01   -0.39665E+00   -0.43660E+00    12   0.289E+01 0.505E+00
CGA:  19    -0.574629825929E+01   -0.52958E+00   -0.57737E+00    12   0.188E+01 0.650E+00
CGA:  20    -0.616465477172E+01   -0.41836E+00   -0.43785E+00    12   0.342E+00 0.577E+00
CGA:  21    -0.633457983261E+01   -0.16993E+00   -0.15381E+00    12   0.158E+00 0.959E-01
CGA:  22    -0.644034609364E+01   -0.10577E+00   -0.96325E-01    12   0.315E-01 0.340E-01
CGA:  23    -0.646180642691E+01   -0.21460E-01   -0.18580E-01    12   0.769E-02 0.104E-01
CGA:  24    -0.646919997966E+01   -0.73936E-02   -0.65721E-02    12   0.327E-02 0.202E-02
CGA:  25    -0.647153667513E+01   -0.23367E-02   -0.23499E-02    12   0.251E-02-0.274E-04
CGA:  26    -0.647297498587E+01   -0.14383E-02   -0.14311E-02    12   0.115E-02 0.204E-04
CGA:  27    -0.647360426232E+01   -0.62928E-03   -0.62144E-03    12   0.804E-03 0.633E-04
CGA:  28    -0.647404237146E+01   -0.43811E-03   -0.42853E-03    12   0.449E-03 0.414E-04
CGA:  29    -0.647422203711E+01   -0.17967E-03   -0.17961E-03    12   0.192E-03-0.175E-05
CGA:  30    -0.647429157855E+01   -0.69541E-04   -0.69947E-04    12   0.770E-04-0.836E-05
CGA:  31    -0.647432368973E+01   -0.32111E-04   -0.33050E-04    12   0.335E-04-0.822E-05
CGA:  32    -0.647433684679E+01   -0.13157E-04   -0.13897E-04    12   0.149E-04-0.405E-05
CGA:  33    -0.647434332617E+01   -0.64794E-05   -0.66131E-05    12   0.101E-04-0.227E-06
CGA:  34    -0.647434947995E+01   -0.61538E-05   -0.61628E-05    12   0.977E-05-0.328E-07
CGA:  35    -0.647435581336E+01   -0.63334E-05   -0.64148E-05    12   0.909E-05 0.609E-07
CGA:  36    -0.647435963774E+01   -0.38244E-05   -0.37813E-05    12   0.658E-05 0.660E-06
CGA:  37    -0.647436359681E+01   -0.39591E-05   -0.39364E-05    12   0.552E-05 0.222E-06
CGA:  38    -0.647436713447E+01   -0.35377E-05   -0.33831E-05    12   0.506E-05 0.728E-06
CGA:  39    -0.647437048124E+01   -0.33468E-05   -0.32833E-05    12   0.517E-05 0.388E-06
CGA:  40    -0.647437531807E+01   -0.48368E-05   -0.48210E-05    12   0.103E-04 0.463E-06
CGA:  41    -0.647438047139E+01   -0.51533E-05   -0.50318E-05    12   0.166E-04 0.366E-05
CGA:  42    -0.647439412882E+01   -0.13657E-04   -0.12807E-04    12   0.265E-04 0.645E-05
CGA:  43    -0.647441800397E+01   -0.23875E-04   -0.21911E-04    12   0.425E-04 0.134E-04
CGA:  44    -0.647444403789E+01   -0.26034E-04   -0.25902E-04    12   0.162E-04 0.805E-06
CGA:  45    -0.647445352569E+01   -0.94878E-05   -0.95123E-05    12   0.871E-05-0.160E-06
CGA:  46    -0.647445733697E+01   -0.38113E-05   -0.38095E-05    12   0.252E-05-0.390E-07
CGA:  47    -0.647445990593E+01   -0.25690E-05   -0.25511E-05    12   0.333E-05 0.257E-07
CGA:  48    -0.647446796713E+01   -0.80612E-05   -0.16088E-07    12   0.148E-04-0.848E-06
CGA:  49    -0.647447684611E+01   -0.88790E-05   -0.88726E-05    12   0.194E-04 0.777E-07
CGA:  50    -0.647449540448E+01   -0.18558E-04   -0.18493E-04    12   0.372E-04 0.486E-06
CGA:  51    -0.647454414575E+01   -0.48741E-04   -0.81819E-04    12   0.220E-03-0.346E-04
CGA:  52    -0.647464682795E+01   -0.10268E-03   -0.10383E-03    12   0.542E-04-0.292E-06
CGA:  53    -0.647467705173E+01   -0.30224E-04   -0.30131E-04    12   0.287E-04 0.433E-07
CGA:  54    -0.647469351841E+01   -0.16467E-04   -0.16466E-04    12   0.147E-04-0.151E-07
CGA:  55    -0.647470734366E+01   -0.13825E-04   -0.13815E-04    12   0.723E-05 0.216E-06
CGA:  56    -0.647471371335E+01   -0.63697E-05   -0.63693E-05    12   0.445E-05 0.839E-07
CGA:  57    -0.647471874924E+01   -0.50359E-05   -0.50725E-05    12   0.562E-05 0.104E-06
CGA:  58    -0.647472632557E+01   -0.75763E-05   -0.79249E-05    12   0.105E-04 0.290E-06
CGA:  59    -0.647473798092E+01   -0.11655E-04   -0.12164E-04    12   0.187E-04 0.137E-05
CGA:  60    -0.647475858250E+01   -0.20602E-04   -0.21485E-04    12   0.316E-04-0.590E-06
CGA:  61    -0.647473697447E+01    0.21608E-04   -0.40449E-04    12   0.221E-03-0.153E-03
CGA:  62    -0.647482819515E+01   -0.91221E-04   -0.10218E-03    12   0.223E-04-0.111E-04
CGA:  63    -0.647485632883E+01   -0.28134E-04   -0.30882E-04    12   0.265E-04-0.492E-05
CGA:  64    -0.647486266262E+01   -0.63338E-05   -0.52369E-05    12   0.118E-04 0.318E-05
CGA:  65    -0.647486751842E+01   -0.48558E-05   -0.47866E-05    12   0.108E-04-0.561E-07
CGA:  66    -0.647487232915E+01   -0.48107E-05   -0.47853E-05    12   0.115E-04-0.366E-07
CGA:  67    -0.647487703352E+01   -0.47044E-05   -0.47501E-05    12   0.123E-04-0.979E-07
CGA:  68    -0.647488188763E+01   -0.48541E-05   -0.49377E-05    12   0.111E-04-0.194E-06
CGA:  69    -0.647488665824E+01   -0.47706E-05   -0.47925E-05    12   0.128E-04-0.123E-06
CGA:  70    -0.647489264490E+01   -0.59867E-05   -0.59848E-05    12   0.140E-04-0.738E-07
CGA:  71    -0.647490115068E+01   -0.85058E-05   -0.84927E-05    12   0.252E-04-0.511E-07
CGA:  72    -0.647491710531E+01   -0.15955E-04   -0.15890E-04    12   0.381E-04-0.185E-06
CGA:  73    -0.647494307364E+01   -0.25968E-04   -0.25602E-04    12   0.890E-04-0.132E-05
CGA:  74    -0.647497450229E+01   -0.31429E-04   -0.23383E-04    12   0.107E-03 0.240E-04
CGA:  75    -0.647501113275E+01   -0.36630E-04   -0.29804E-04    12   0.109E-03 0.270E-04
CGA:  76    -0.647505442302E+01   -0.43290E-04   -0.40841E-04    12   0.191E-03 0.701E-05
CGA:  77    -0.647510746019E+01   -0.53037E-04   -0.46063E-04    12   0.280E-03 0.282E-04
CGA:  78    -0.647516416284E+01   -0.56703E-04   -0.40083E-04    12   0.279E-03 0.126E-03
CGA:  79    -0.647522601356E+01   -0.61851E-04   -0.43509E-04    12   0.260E-03 0.159E-03
CGA:  80    -0.647540811106E+01   -0.18210E-03   -0.18202E-03    12   0.134E-03 0.602E-06
CGA:  81    -0.647547864698E+01   -0.70536E-04   -0.70549E-04    12   0.344E-04-0.518E-07
CGA:  82    -0.647549468918E+01   -0.16042E-04   -0.16063E-04    12   0.159E-04 0.129E-06
CGA:  83    -0.647550378049E+01   -0.90913E-05   -0.90880E-05    12   0.516E-05-0.796E-07
CGA:  84    -0.647550834093E+01   -0.45604E-05   -0.45769E-05    12   0.506E-05-0.543E-07
CGA:  85    -0.647551535457E+01   -0.70136E-05   -0.70876E-05    12   0.949E-05-0.887E-07
CGA:  86    -0.647553038973E+01   -0.15035E-04   -0.18003E-04    12   0.330E-04-0.104E-05
CGA:  87    -0.647555132258E+01   -0.20933E-04   -0.20987E-04    12   0.609E-04 0.167E-05
CGA:  88    -0.647560395057E+01   -0.52628E-04   -0.98987E-04    12   0.321E-03-0.701E-04
CGA:  89    -0.647572556198E+01   -0.12161E-03   -0.13130E-03    12   0.583E-04 0.577E-05
CGA:  90    -0.647576798824E+01   -0.42426E-04   -0.42764E-04    12   0.216E-04 0.499E-05
CGA:  91    -0.647578522622E+01   -0.17238E-04   -0.17235E-04    12   0.995E-05 0.193E-06
CGA:  92    -0.647579183935E+01   -0.66131E-05   -0.66191E-05    12   0.679E-05 0.153E-06
CGA:  93    -0.647579604009E+01   -0.42007E-05   -0.41858E-05    12   0.472E-05 0.127E-06
CGA:  94    -0.647580278234E+01   -0.67423E-05   -0.70770E-05    12   0.986E-05-0.270E-06
CGA:  95    -0.647581171648E+01   -0.89341E-05   -0.86597E-05    12   0.132E-04 0.140E-05
CGA:  96    -0.647582894591E+01   -0.17229E-04   -0.17028E-04    12   0.291E-04 0.139E-05
CGA:  97    -0.647586013212E+01   -0.31186E-04   -0.33600E-04    12   0.721E-04-0.887E-05
CGA:  98    -0.647570996929E+01    0.15016E-03   -0.77257E-04    12   0.709E-03-0.360E-03
CGA:  99    -0.647601683941E+01   -0.30687E-03   -0.31932E-03    12   0.763E-04-0.447E-05
CGA: 100    -0.647607662775E+01   -0.59788E-04   -0.60176E-04    12   0.381E-04 0.533E-05
CGA: 101    -0.647609856327E+01   -0.21936E-04   -0.21356E-04    12   0.170E-04 0.691E-06
CGA: 102    -0.647611029430E+01   -0.11731E-04   -0.11745E-04    12   0.123E-04 0.990E-07
CGA: 103    -0.647612135974E+01   -0.11065E-04   -0.11071E-04    12   0.619E-05-0.533E-08
CGA: 104    -0.647612765607E+01   -0.62963E-05   -0.62991E-05    12   0.462E-05-0.447E-07
CGA: 105    -0.647613236412E+01   -0.47080E-05   -0.46890E-05    12   0.632E-05 0.611E-07
CGA: 106    -0.647613904532E+01   -0.66812E-05   -0.66983E-05    12   0.103E-04-0.120E-06
CGA: 107    -0.647615053285E+01   -0.11488E-04   -0.11633E-04    12   0.180E-04-0.278E-06
CGA: 108    -0.647618217703E+01   -0.31644E-04   -0.36827E-04    12   0.600E-04-0.388E-05
CGA: 109    -0.647623171230E+01   -0.49535E-04   -0.53418E-04    12   0.115E-03-0.147E-04
CGA: 110    -0.647627090034E+01   -0.39188E-04   -0.36336E-04    12   0.148E-03 0.782E-05
CGA: 111    -0.647633469889E+01   -0.63799E-04   -0.55687E-04    12   0.165E-03 0.227E-04
CGA: 112    -0.647639881736E+01   -0.64118E-04   -0.54960E-04    12   0.197E-03 0.336E-04
CGA: 113    -0.647645799993E+01   -0.59183E-04   -0.48941E-04    12   0.215E-03 0.562E-04
CGA: 114    -0.647651182352E+01   -0.53824E-04   -0.46132E-04    12   0.210E-03 0.602E-04
CGA: 115    -0.647655565158E+01   -0.43828E-04   -0.41202E-04    12   0.201E-03 0.380E-04
CGA: 116    -0.647658940624E+01   -0.33755E-04   -0.35388E-04    12   0.204E-03 0.136E-04
CGA: 117    -0.647661823939E+01   -0.28833E-04   -0.33655E-04    12   0.225E-03-0.441E-05
CGA: 118    -0.647664810542E+01   -0.29866E-04   -0.38789E-04    12   0.264E-03-0.208E-04
CGA: 119    -0.647668611540E+01   -0.38010E-04   -0.52624E-04    12   0.285E-03-0.331E-04
CGA: 120    -0.647674465846E+01   -0.58543E-04   -0.66110E-04    12   0.249E-03-0.114E-04
CGA: 121    -0.647681402001E+01   -0.69362E-04   -0.61154E-04    12   0.198E-03 0.166E-04
CGA: 122    -0.647686987743E+01   -0.55857E-04   -0.47024E-04    12   0.148E-03 0.191E-04
CGA: 123    -0.647690584407E+01   -0.35967E-04   -0.31515E-04    12   0.102E-03 0.887E-05
CGA: 124    -0.647692781152E+01   -0.21967E-04   -0.20334E-04    12   0.704E-04 0.139E-05
CGA: 125    -0.647694188569E+01   -0.14074E-04   -0.13544E-04    12   0.531E-04-0.368E-06
CGA: 126    -0.647695221611E+01   -0.10330E-04   -0.10168E-04    12   0.437E-04-0.325E-06
CGA: 127    -0.647696046763E+01   -0.82515E-05   -0.82214E-05    12   0.353E-04-0.745E-07
CGA: 128    -0.647696680217E+01   -0.63345E-05   -0.63617E-05    12   0.277E-04 0.104E-06
SDA: 129    -0.647697162254E+01   -0.48204E-05   -0.48756E-05    12   0.220E-04 0.192E-06
CGA: 130    -0.647698353910E+01   -0.11917E-04   -0.11910E-04    12   0.883E-05 0.889E-07
CGA: 131    -0.647698598997E+01   -0.24509E-05   -0.24291E-05    12   0.167E-05-0.110E-06
CGA: 132    -0.647698672599E+01   -0.73602E-06   -0.73583E-06    12   0.408E-06-0.128E-07
   2 F= -.64769867E+01 E0= -.64769285E+01  d E =0.453422E+01  mag=    -0.0000
       N       E                     dE             d eps       ncg     rms          ort
SDA:   1    -0.319554927460E+01    0.32814E+01    0.00000E+00    12   0.780E+01 0.000E+00
CGA:   2    -0.580649055612E+01   -0.26109E+01   -0.26255E+01    12   0.339E+01 0.264E-01
CGA:   3    -0.654494427839E+01   -0.73845E+00   -0.73227E+00    12   0.549E+00 0.638E-01
CGA:   4    -0.668483892291E+01   -0.13989E+00   -0.14097E+00    12   0.117E+00 0.107E-02
CGA:   5    -0.671853696185E+01   -0.33698E-01   -0.33732E-01    12   0.379E-01 0.285E-03
CGA:   6    -0.673153669265E+01   -0.13000E-01   -0.13014E-01    12   0.137E-01 0.882E-04
CGA:   7    -0.673657489925E+01   -0.50382E-02   -0.50388E-02    12   0.484E-02 0.113E-04
CGA:   8    -0.673822896404E+01   -0.16541E-02   -0.16545E-02    12   0.124E-02 0.242E-05
CGA:   9    -0.673863154798E+01   -0.40258E-03   -0.40266E-03    12   0.311E-03 0.696E-06
CGA:  10    -0.673873550860E+01   -0.10396E-03   -0.10390E-03    12   0.103E-03-0.902E-06
CGA:  11    -0.673877462490E+01   -0.39116E-04   -0.39112E-04    12   0.431E-04-0.215E-06
CGA:  12    -0.673879400584E+01   -0.19381E-04   -0.19405E-04    12   0.185E-04-0.467E-06
CGA:  13    -0.673880214875E+01   -0.81429E-05   -0.81492E-05    12   0.634E-05-0.176E-06
CGA:  14    -0.673880495118E+01   -0.28024E-05   -0.28058E-05    12   0.259E-05-0.935E-07
CGA:  15    -0.673880606256E+01   -0.11114E-05   -0.11089E-05    12   0.125E-05 0.801E-07
CGA:  16    -0.673880665145E+01   -0.58889E-06   -0.58563E-06    12   0.553E-06 0.600E-07
   3 F= -.67388067E+01 E0= -.67387454E+01  d E =0.427240E+01  mag=     0.0000
       N       E                     dE             d eps       ncg     rms          ort
SDA:   1    -0.381469155013E+01    0.29241E+01    0.00000E+00    12   0.701E+01 0.000E+00
CGA:   2    -0.617637321400E+01   -0.23617E+01   -0.23698E+01    12   0.290E+01 0.290E-01
CGA:   3    -0.681483645228E+01   -0.63846E+00   -0.63586E+00    12   0.494E+00 0.305E-01
CGA:   4    -0.693859100573E+01   -0.12375E+00   -0.12447E+00    12   0.102E+00 0.129E-02
CGA:   5    -0.696819091695E+01   -0.29600E-01   -0.29623E-01    12   0.338E-01 0.230E-03
CGA:   6    -0.697970784316E+01   -0.11517E-01   -0.11524E-01    12   0.122E-01 0.819E-04
CGA:   7    -0.698417289864E+01   -0.44651E-02   -0.44652E-02    12   0.429E-02 0.916E-05
CGA:   8    -0.698563908503E+01   -0.14662E-02   -0.14664E-02    12   0.111E-02 0.260E-05
CGA:   9    -0.698599820176E+01   -0.35912E-03   -0.35919E-03    12   0.272E-03 0.700E-06
CGA:  10    -0.698608923900E+01   -0.91037E-04   -0.90991E-04    12   0.858E-04-0.980E-06
CGA:  11    -0.698612138445E+01   -0.32145E-04   -0.32145E-04    12   0.339E-04-0.229E-06
CGA:  12    -0.698613628541E+01   -0.14901E-04   -0.14931E-04    12   0.139E-04-0.470E-06
CGA:  13    -0.698614219274E+01   -0.59073E-05   -0.59166E-05    12   0.438E-05-0.169E-06
CGA:  14    -0.698614403102E+01   -0.18383E-05   -0.18418E-05    12   0.150E-05-0.829E-07
CGA:  15    -0.698614462908E+01   -0.59806E-06   -0.59712E-06    12   0.596E-06 0.589E-07
   4 F= -.69861446E+01 E0= -.69860815E+01  d E =0.402506E+01  mag=     0.0000
       N       E                     dE             d eps       ncg     rms          ort
SDA:   1     0.189799662355E+03    0.19679E+03    0.00000E+00    12   0.365E+03 0.000E+00
CGA:   2     0.119527198684E+03   -0.70272E+02   -0.90830E+02    12   0.233E+03 0.221E+02
CGA:   3     0.630789275873E+02   -0.56448E+02   -0.66859E+02    12   0.223E+03 0.351E+02
CGA:   4     0.160692073703E+02   -0.47010E+02   -0.61129E+02    12   0.516E+02 0.276E+02
CGA:   5     0.182075979115E+01   -0.14248E+02   -0.15819E+02    12   0.213E+02 0.565E+01
CGA:   6    -0.470833578286E+01   -0.65291E+01   -0.67030E+01    12   0.628E+01 0.179E+01
CGA:   7    -0.711868871717E+01   -0.24104E+01   -0.24156E+01    12   0.271E+01 0.601E+00
CGA:   8    -0.825698588873E+01   -0.11383E+01   -0.11343E+01    12   0.121E+01 0.127E+00
CGA:   9    -0.872398600167E+01   -0.46700E+00   -0.46746E+00    12   0.593E+00-0.281E-01
CGA:  10    -0.889964250534E+01   -0.17566E+00   -0.17600E+00    12   0.207E+00 0.246E-02
CGA:  11    -0.898153596774E+01   -0.81893E-01   -0.82173E-01    12   0.106E+00-0.586E-02
CGA:  12    -0.901763742897E+01   -0.36101E-01   -0.36034E-01    12   0.700E-01-0.378E-02
CGA:  13    -0.904161849196E+01   -0.23981E-01   -0.23974E-01    12   0.407E-01-0.109E-02
CGA:  14    -0.905813140495E+01   -0.16513E-01   -0.16551E-01    12   0.314E-01-0.543E-03
CGA:  15    -0.906783332332E+01   -0.97019E-02   -0.96403E-02    12   0.190E-01-0.457E-03
CGA:  16    -0.907430339177E+01   -0.64701E-02   -0.64704E-02    12   0.105E-01 0.131E-04
CGA:  17    -0.907739081666E+01   -0.30874E-02   -0.30919E-02    12   0.640E-02 0.307E-04
CGA:  18    -0.907965811587E+01   -0.22673E-02   -0.22674E-02    12   0.341E-02 0.365E-04
CGA:  19    -0.908080110632E+01   -0.11430E-02   -0.11435E-02    12   0.236E-02 0.148E-04
CGA:  20    -0.908161872086E+01   -0.81761E-03   -0.81766E-03    12   0.122E-02 0.129E-05
CGA:  21    -0.908207479149E+01   -0.45607E-03   -0.45611E-03    12   0.954E-03-0.222E-05
CGA:  22    -0.908240460110E+01   -0.32981E-03   -0.32979E-03    12   0.547E-03-0.108E-05
CGA:  23    -0.908263293518E+01   -0.22833E-03   -0.22840E-03    12   0.430E-03-0.872E-06
CGA:  24    -0.908277068606E+01   -0.13775E-03   -0.13758E-03    12   0.232E-03-0.205E-05
CGA:  25    -0.908286023985E+01   -0.89554E-04   -0.89577E-04    12   0.137E-03-0.414E-06
CGA:  26    -0.908290082534E+01   -0.40585E-04   -0.40581E-04    12   0.734E-04 0.115E-06
CGA:  27    -0.908292878372E+01   -0.27958E-04   -0.27959E-04    12   0.419E-04-0.102E-07
CGA:  28    -0.908294282347E+01   -0.14040E-04   -0.14039E-04    12   0.294E-04-0.811E-07
CGA:  29    -0.908295438554E+01   -0.11562E-04   -0.11560E-04    12   0.183E-04 0.516E-07
CGA:  30    -0.908296127552E+01   -0.68900E-05   -0.68877E-05    12   0.148E-04 0.120E-06
CGA:  31    -0.908296659986E+01   -0.53243E-05   -0.53238E-05    12   0.793E-05 0.401E-07
SDA:  32    -0.908296962595E+01   -0.30261E-05   -0.30260E-05    12   0.568E-05 0.141E-07
CGA:  33    -0.908297187142E+01   -0.22455E-05   -0.22434E-05    12   0.365E-05 0.354E-07
CGA:  34    -0.908297355718E+01   -0.16858E-05   -0.16906E-05    12   0.100E-05-0.553E-07
CGA:  35    -0.908297402396E+01   -0.46678E-06   -0.46480E-06    12   0.163E-06 0.175E-07
   5 F= -.90829740E+01 E0= -.90829642E+01  d E =0.192823E+01  mag=    -0.0000
       N       E                     dE             d eps       ncg     rms          ort
SDA:   1     0.872561002562E+02    0.96339E+02    0.00000E+00    12   0.284E+03 0.000E+00
CGA:   2     0.247585789389E+02   -0.62498E+02   -0.72890E+02    12   0.127E+03 0.683E+01
CGA:   3    -0.220318938420E+01   -0.26962E+02   -0.31252E+02    12   0.215E+02 0.135E+02
CGA:   4    -0.866226987899E+01   -0.64591E+01   -0.65509E+01    12   0.639E+01 0.865E+00
CGA:   5    -0.103333336966E+02   -0.16711E+01   -0.17047E+01    12   0.214E+01 0.215E+00
CGA:   6    -0.112103791815E+02   -0.87705E+00   -0.87341E+00    12   0.110E+01 0.926E-01
CGA:   7    -0.116383564613E+02   -0.42798E+00   -0.42771E+00    12   0.448E+00 0.151E-01
CGA:   8    -0.118070907922E+02   -0.16873E+00   -0.16877E+00    12   0.194E+00-0.114E-02
CGA:   9    -0.118813491451E+02   -0.74258E-01   -0.74349E-01    12   0.989E-01-0.302E-02
CGA:  10    -0.119204855815E+02   -0.39136E-01   -0.39220E-01    12   0.505E-01-0.162E-02
CGA:  11    -0.119420046923E+02   -0.21519E-01   -0.21715E-01    12   0.255E-01-0.188E-02
CGA:  12    -0.119522479497E+02   -0.10243E-01   -0.10266E-01    12   0.103E-01-0.301E-03
CGA:  13    -0.119562898966E+02   -0.40419E-02   -0.40432E-02    12   0.387E-02-0.273E-04
CGA:  14    -0.119576589391E+02   -0.13690E-02   -0.13689E-02    12   0.128E-02-0.404E-05
CGA:  15    -0.119581109950E+02   -0.45206E-03   -0.45197E-03    12   0.472E-03-0.203E-05
CGA:  16    -0.119583223785E+02   -0.21138E-03   -0.21135E-03    12   0.251E-03 0.817E-06
CGA:  17    -0.119584531660E+02   -0.13079E-03   -0.13069E-03    12   0.149E-03 0.720E-06
CGA:  18    -0.119585291004E+02   -0.75934E-04   -0.75908E-04    12   0.798E-04 0.267E-06
CGA:  19    -0.119585646233E+02   -0.35523E-04   -0.35524E-04    12   0.390E-04-0.729E-08
CGA:  20    -0.119585809848E+02   -0.16362E-04   -0.16371E-04    12   0.185E-04-0.331E-06
CGA:  21    -0.119585887957E+02   -0.78110E-05   -0.78202E-05    12   0.754E-05-0.255E-06
CGA:  22    -0.119585920747E+02   -0.32790E-05   -0.32888E-05    12   0.268E-05-0.197E-06
CGA:  23    -0.119585932649E+02   -0.11902E-05   -0.11945E-05    12   0.104E-05-0.684E-07
CGA:  24    -0.119585937601E+02   -0.49514E-06   -0.49444E-06    12   0.509E-06 0.796E-08
   6 F= -.11958594E+02 E0= -.11958594E+02  d E =-.947387E+00  mag=     0.0000
       N       E                     dE             d eps       ncg     rms          ort
SDA:   1     0.467413222851E+01    0.16633E+02    0.00000E+00    12   0.435E+02 0.000E+00
CGA:   2    -0.825731908012E+01   -0.12931E+02   -0.13245E+02    12   0.189E+02 0.349E+00
CGA:   3    -0.123155742912E+02   -0.40583E+01   -0.41838E+01    12   0.361E+01 0.501E+00
CGA:   4    -0.132310872019E+02   -0.91551E+00   -0.92390E+00    12   0.737E+00 0.461E-01
CGA:   5    -0.134377930952E+02   -0.20671E+00   -0.20911E+00    12   0.237E+00 0.855E-02
CGA:   6    -0.135106685186E+02   -0.72875E-01   -0.72757E-01    12   0.782E-01-0.117E-03
CGA:   7    -0.135356782132E+02   -0.25010E-01   -0.25024E-01    12   0.253E-01 0.585E-04
CGA:   8    -0.135437955568E+02   -0.81173E-02   -0.81071E-02    12   0.726E-02-0.559E-04
CGA:   9    -0.135460750192E+02   -0.22795E-02   -0.22799E-02    12   0.177E-02 0.857E-05
CGA:  10    -0.135466438533E+02   -0.56883E-03   -0.56888E-03    12   0.412E-03 0.275E-05
CGA:  11    -0.135467865921E+02   -0.14274E-03   -0.14274E-03    12   0.104E-03 0.147E-06
CGA:  12    -0.135468265622E+02   -0.39970E-04   -0.39966E-04    12   0.313E-04 0.224E-06
CGA:  13    -0.135468381628E+02   -0.11601E-04   -0.11602E-04    12   0.894E-05-0.428E-06
CGA:  14    -0.135468412707E+02   -0.31079E-05   -0.31074E-05    12   0.233E-05-0.714E-07
CGA:  15    -0.135468420946E+02   -0.82396E-06   -0.82289E-06    12   0.574E-06-0.119E-06
   7 F= -.13546842E+02 E0= -.13546842E+02  d E =-.253563E+01  mag=     0.0000
       N       E                     dE             d eps       ncg     rms          ort
SDA:   1    -0.834126546490E+01    0.52056E+01    0.00000E+00    12   0.129E+02 0.000E+00
CGA:   2    -0.120636205913E+02   -0.37224E+01   -0.37556E+01    12   0.538E+01 0.111E+00
CGA:   3    -0.131661372128E+02   -0.11025E+01   -0.11151E+01    12   0.104E+01 0.379E-01
CGA:   4    -0.134131126176E+02   -0.24698E+00   -0.24817E+00    12   0.195E+00 0.484E-02
CGA:   5    -0.134613462000E+02   -0.48234E-01   -0.48340E-01    12   0.463E-01 0.818E-03
CGA:   6    -0.134742869556E+02   -0.12941E-01   -0.12962E-01    12   0.126E-01 0.205E-03
CGA:   7    -0.134784822052E+02   -0.41952E-02   -0.41956E-02    12   0.443E-02 0.356E-04
CGA:   8    -0.134800743244E+02   -0.15921E-02   -0.15915E-02    12   0.146E-02 0.230E-04
CGA:   9    -0.134805827603E+02   -0.50844E-03   -0.50842E-03    12   0.371E-03 0.397E-05
CGA:  10    -0.134807051297E+02   -0.12237E-03   -0.12238E-03    12   0.790E-04 0.706E-06
CGA:  11    -0.134807298572E+02   -0.24728E-04   -0.24741E-04    12   0.170E-04 0.498E-06
CGA:  12    -0.134807355655E+02   -0.57084E-05   -0.57071E-05    12   0.443E-05-0.196E-06
CGA:  13    -0.134807371866E+02   -0.16210E-05   -0.16215E-05    12   0.124E-05-0.594E-07
CGA:  14    -0.134807377487E+02   -0.56213E-06   -0.58656E-06    12   0.464E-06-0.182E-06
   8 F= -.13480738E+02 E0= -.13480738E+02  d E =-.246953E+01  mag=    -0.0000
       N       E                     dE             d eps       ncg     rms          ort
SDA:   1    -0.114433782129E+02    0.20374E+01    0.00000E+00    12   0.556E+01 0.000E+00
CGA:   2    -0.131100916701E+02   -0.16667E+01   -0.16629E+01    12   0.212E+01-0.294E-01
CGA:   3    -0.135479234197E+02   -0.43783E+00   -0.44136E+00    12   0.393E+00 0.574E-03
CGA:   4    -0.136379740781E+02   -0.90051E-01   -0.89822E-01    12   0.690E-01 0.864E-04
CGA:   5    -0.136542565054E+02   -0.16282E-01   -0.16297E-01    12   0.142E-01-0.180E-04
CGA:   6    -0.136580350467E+02   -0.37785E-02   -0.37783E-02    12   0.309E-02-0.989E-06
CGA:   7    -0.136589757244E+02   -0.94068E-03   -0.94077E-03    12   0.859E-03 0.203E-05
CGA:   8    -0.136592677387E+02   -0.29201E-03   -0.29197E-03    12   0.269E-03 0.283E-05
CGA:   9    -0.136593591564E+02   -0.91418E-04   -0.91412E-04    12   0.746E-04 0.305E-06
CGA:  10    -0.136593830664E+02   -0.23910E-04   -0.23915E-04    12   0.178E-04 0.549E-06
CGA:  11    -0.136593883620E+02   -0.52956E-05   -0.52929E-05    12   0.383E-05-0.862E-07
CGA:  12    -0.136593895367E+02   -0.11747E-05   -0.11765E-05    12   0.794E-06 0.814E-07
CGA:  13    -0.136593898305E+02   -0.29375E-06   -0.29625E-06    12   0.186E-06-0.942E-08
   9 F= -.13659390E+02 E0= -.13659390E+02  d E =-.264818E+01  mag=     0.0000
       N       E                     dE             d eps       ncg     rms          ort
SDA:   1    -0.135457473932E+02    0.11364E+00    0.00000E+00    12   0.311E+00 0.000E+00
CGA:   2    -0.136382935033E+02   -0.92546E-01   -0.92586E-01    12   0.123E+00 0.504E-03
CGA:   3    -0.136638761230E+02   -0.25583E-01   -0.25579E-01    12   0.231E-01 0.404E-04
CGA:   4    -0.136691513691E+02   -0.52752E-02   -0.52777E-02    12   0.395E-02 0.362E-05
CGA:   5    -0.136700835011E+02   -0.93213E-03   -0.93229E-03    12   0.799E-03 0.305E-05
CGA:   6    -0.136702918971E+02   -0.20840E-03   -0.20840E-03    12   0.169E-03-0.923E-07
CGA:   7    -0.136703432200E+02   -0.51323E-04   -0.51329E-04    12   0.482E-04 0.736E-06
CGA:   8    -0.136703600481E+02   -0.16828E-04   -0.16816E-04    12   0.167E-04 0.330E-06
CGA:   9    -0.136703658814E+02   -0.58333E-05   -0.58187E-05    12   0.498E-05 0.435E-06
CGA:  10    -0.136703676071E+02   -0.17256E-05   -0.17237E-05    12   0.125E-05 0.803E-07
CGA:  11    -0.136703679824E+02   -0.37535E-06   -0.37681E-06    12   0.242E-06 0.861E-07
  10 F= -.13670368E+02 E0= -.13670368E+02  d E =-.265916E+01  mag=     0.0000
       N       E                     dE             d eps       ncg     rms          ort
SDA:   1     0.131762592004E+02    0.26847E+02    0.00000E+00    12   0.638E+02 0.000E+00
CGA:   2    -0.479818703484E+01   -0.17974E+02   -0.18134E+02    12   0.284E+02 0.146E+01
CGA:   3    -0.104804787232E+02   -0.56823E+01   -0.59244E+01    12   0.619E+01 0.522E+00
CGA:   4    -0.120466697222E+02   -0.15662E+01   -0.15722E+01    12   0.145E+01 0.874E-01
CGA:   5    -0.124336041042E+02   -0.38693E+00   -0.38926E+00    12   0.446E+00 0.325E-01
CGA:   6    -0.125746561044E+02   -0.14105E+00   -0.14101E+00    12   0.152E+00 0.583E-02
CGA:   7    -0.126256082665E+02   -0.50952E-01   -0.50890E-01    12   0.520E-01 0.151E-02
CGA:   8    -0.126435686183E+02   -0.17960E-01   -0.17956E-01    12   0.151E-01 0.111E-03
CGA:   9    -0.126485386249E+02   -0.49700E-02   -0.49692E-02    12   0.345E-02 0.284E-04
CGA:  10    -0.126496871604E+02   -0.11485E-02   -0.11485E-02    12   0.724E-03 0.182E-05
CGA:  11    -0.126499316342E+02   -0.24447E-03   -0.24449E-03    12   0.183E-03-0.322E-06
CGA:  12    -0.126499992977E+02   -0.67663E-04   -0.67665E-04    12   0.567E-04-0.315E-07
CGA:  13    -0.126500211457E+02   -0.21848E-04   -0.21915E-04    12   0.197E-04-0.940E-06
CGA:  14    -0.126500280038E+02   -0.68582E-05   -0.68677E-05    12   0.530E-05-0.272E-06
CGA:  15    -0.126500299648E+02   -0.19610E-05   -0.19782E-05    12   0.125E-05-0.302E-06
CGA:  16    -0.126500304277E+02   -0.46295E-06   -0.46653E-06    12   0.282E-06-0.506E-07
  11 F= -.12650030E+02 E0= -.12650030E+02  d E =0.102034E+01  mag=     0.0000
       N       E                     dE             d eps       ncg     rms          ort
SDA:   1     0.425902843674E+01    0.16909E+02    0.00000E+00    12   0.457E+02 0.000E+00
CGA:   2    -0.953642483807E+01   -0.13795E+02   -0.13771E+02    12   0.172E+02-0.615E+00
CGA:   3    -0.128714434784E+02   -0.33350E+01   -0.34719E+01    12   0.332E+01 0.134E+00
CGA:   4    -0.136806073474E+02   -0.80916E+00   -0.80901E+00    12   0.675E+00 0.984E-02
CGA:   5    -0.138511018749E+02   -0.17049E+00   -0.17100E+00    12   0.173E+00 0.244E-02
CGA:   6    -0.139013493813E+02   -0.50248E-01   -0.50293E-01    12   0.495E-01 0.770E-03
CGA:   7    -0.139173681863E+02   -0.16019E-01   -0.16015E-01    12   0.157E-01 0.332E-03
CGA:   8    -0.139227670176E+02   -0.53988E-02   -0.53945E-02    12   0.465E-02 0.113E-03
CGA:   9    -0.139243049250E+02   -0.15379E-02   -0.15377E-02    12   0.116E-02 0.149E-04
CGA:  10    -0.139246841900E+02   -0.37927E-03   -0.37924E-03    12   0.274E-03 0.194E-05
CGA:  11    -0.139247695920E+02   -0.85402E-04   -0.85410E-04    12   0.677E-04 0.112E-05
CGA:  12    -0.139247929783E+02   -0.23386E-04   -0.23389E-04    12   0.175E-04-0.113E-06
CGA:  13    -0.139247995657E+02   -0.65874E-05   -0.65780E-05    12   0.474E-05 0.160E-06
CGA:  14    -0.139248014366E+02   -0.18709E-05   -0.18767E-05    12   0.115E-05-0.842E-07
CGA:  15    -0.139248018770E+02   -0.44045E-06   -0.44383E-06    12   0.255E-06-0.507E-07
  12 F= -.13924802E+02 E0= -.13924802E+02  d E =-.254434E+00  mag=    -0.0000
       N       E                     dE             d eps       ncg     rms          ort
SDA:   1    -0.136816027717E+02    0.24320E+00    0.00000E+00    12   0.814E+00 0.000E+00
CGA:   2    -0.139309074200E+02   -0.24930E+00   -0.24941E+00    12   0.320E+00 0.172E-02
CGA:   3    -0.139966234818E+02   -0.65716E-01   -0.65754E-01    12   0.614E-01 0.157E-03
CGA:   4    -0.140104332080E+02   -0.13810E-01   -0.13819E-01    12   0.103E-01 0.331E-04
CGA:   5    -0.140128821217E+02   -0.24489E-02   -0.24494E-02    12   0.208E-02 0.736E-05
CGA:   6    -0.140134336111E+02   -0.55149E-03   -0.55160E-03    12   0.453E-03 0.171E-05
CGA:   7    -0.140135749750E+02   -0.14136E-03   -0.14136E-03    12   0.138E-03 0.140E-05
CGA:   8    -0.140136252550E+02   -0.50280E-04   -0.50226E-04    12   0.490E-04 0.102E-05
CGA:   9    -0.140136428335E+02   -0.17579E-04   -0.17545E-04    12   0.137E-04 0.809E-06
CGA:  10    -0.140136476214E+02   -0.47879E-05   -0.47828E-05    12   0.306E-05 0.189E-06
CGA:  11    -0.140136485361E+02   -0.91470E-06   -0.91730E-06    12   0.572E-06 0.117E-06
  13 F= -.14013649E+02 E0= -.14013649E+02  d E =-.343281E+00  mag=     0.0000
       N       E                     dE             d eps       ncg     rms          ort
SDA:   1    -0.135287445563E+02    0.48490E+00    0.00000E+00    12   0.127E+01 0.000E+00
CGA:   2    -0.139163109369E+02   -0.38757E+00   -0.38769E+00    12   0.513E+00 0.439E-02
CGA:   3    -0.140206422575E+02   -0.10433E+00   -0.10439E+00    12   0.974E-01 0.405E-03
CGA:   4    -0.140425030072E+02   -0.21861E-01   -0.21879E-01    12   0.165E-01 0.772E-04
CGA:   5    -0.140464076927E+02   -0.39047E-02   -0.39054E-02    12   0.331E-02 0.126E-04
CGA:   6    -0.140472813823E+02   -0.87369E-03   -0.87385E-03    12   0.712E-03 0.299E-05
CGA:   7    -0.140475013802E+02   -0.22000E-03   -0.21999E-03    12   0.214E-03 0.171E-05
CGA:   8    -0.140475792036E+02   -0.77823E-04   -0.77738E-04    12   0.767E-04 0.134E-05
CGA:   9    -0.140476070581E+02   -0.27855E-04   -0.27797E-04    12   0.219E-04 0.103E-05
CGA:  10    -0.140476147809E+02   -0.77228E-05   -0.77120E-05    12   0.482E-05 0.270E-06
CGA:  11    -0.140476162590E+02   -0.14782E-05   -0.14792E-05    12   0.895E-06 0.153E-06
CGA:  12    -0.140476165689E+02   -0.30986E-06   -0.31102E-06    12   0.200E-06-0.143E-07
  14 F= -.14047617E+02 E0= -.14047617E+02  d E =-.377249E+00  mag=     0.0000
       N       E                     dE             d eps       ncg     rms          ort
SDA:   1    -0.140328447357E+02    0.14772E-01    0.00000E+00    12   0.392E-01 0.000E+00
CGA:   2    -0.140448925728E+02   -0.12048E-01   -0.12048E-01    12   0.158E-01-0.220E-04
CGA:   3    -0.140480876516E+02   -0.31951E-02   -0.31960E-02    12   0.295E-02 0.275E-05
CGA:   4    -0.140487442415E+02   -0.65659E-03   -0.65672E-03    12   0.488E-03 0.246E-05
CGA:   5    -0.140488578908E+02   -0.11365E-03   -0.11361E-03    12   0.921E-04-0.533E-06
CGA:   6    -0.140488813964E+02   -0.23506E-04   -0.23512E-04    12   0.173E-04 0.139E-06
CGA:   7    -0.140488864270E+02   -0.50306E-05   -0.50303E-05    12   0.428E-05-0.725E-07
CGA:   8    -0.140488879098E+02   -0.14828E-05   -0.14863E-05    12   0.145E-05-0.690E-07
CGA:   9    -0.140488884553E+02   -0.54553E-06   -0.55385E-06    12   0.502E-06-0.920E-07
  15 F= -.14048888E+02 E0= -.14048888E+02  d E =-.378520E+00  mag=    -0.0000
       N       E                     dE             d eps       ncg     rms          ort
SDA:   1    -0.123897467537E+02    0.16591E+01    0.00000E+00    12   0.420E+01 0.000E+00
CGA:   2    -0.137490437494E+02   -0.13593E+01   -0.13590E+01    12   0.170E+01 0.687E-02
CGA:   3    -0.140920341854E+02   -0.34299E+00   -0.34573E+00    12   0.313E+00 0.275E-02
CGA:   4    -0.141631316635E+02   -0.71097E-01   -0.71044E-01    12   0.524E-01 0.301E-03
CGA:   5    -0.141759863909E+02   -0.12855E-01   -0.12864E-01    12   0.116E-01 0.884E-04
CGA:   6    -0.141791312480E+02   -0.31449E-02   -0.31453E-02    12   0.287E-02 0.176E-04
CGA:   7    -0.141800658960E+02   -0.93465E-03   -0.93437E-03    12   0.964E-03 0.618E-05
CGA:   8    -0.141804206398E+02   -0.35474E-03   -0.35436E-03    12   0.329E-03 0.481E-05
CGA:   9    -0.141805387504E+02   -0.11811E-03   -0.11796E-03    12   0.845E-04 0.245E-05
CGA:  10    -0.141805673452E+02   -0.28595E-04   -0.28568E-04    12   0.161E-04 0.764E-06
CGA:  11    -0.141805725772E+02   -0.52320E-05   -0.52268E-05    12   0.276E-05 0.287E-06
CGA:  12    -0.141805735499E+02   -0.97272E-06   -0.97294E-06    12   0.616E-06 0.200E-08
  16 F= -.14180574E+02 E0= -.14180574E+02  d E =-.131685E+00  mag=    -0.0000
       N       E                     dE             d eps       ncg     rms          ort
SDA:   1    -0.141733141205E+02    0.72585E-02    0.00000E+00    12   0.182E-01 0.000E+00
CGA:   2    -0.141792495492E+02   -0.59354E-02   -0.59354E-02    12   0.732E-02 0.229E-06
CGA:   3    -0.141807414559E+02   -0.14919E-02   -0.14917E-02    12   0.131E-02-0.643E-05
CGA:   4    -0.141810335022E+02   -0.29205E-03   -0.29204E-03    12   0.202E-03 0.293E-06
CGA:   5    -0.141810809318E+02   -0.47430E-04   -0.47413E-04    12   0.383E-04-0.266E-06
CGA:   6    -0.141810904689E+02   -0.95370E-05   -0.95395E-05    12   0.681E-05 0.522E-07
CGA:   7    -0.141810924201E+02   -0.19512E-05   -0.19512E-05    12   0.157E-05-0.189E-07
CGA:   8    -0.141810929247E+02   -0.50458E-06   -0.50332E-06    12   0.448E-06 0.583E-07
  17 F= -.14181093E+02 E0= -.14181093E+02  d E =-.132204E+00  mag=     0.0000
       N       E                     dE             d eps       ncg     rms          ort
SDA:   1    -0.137591048646E+02    0.42199E+00    0.00000E+00    12   0.107E+01 0.000E+00
CGA:   2    -0.140726753156E+02   -0.31357E+00   -0.31351E+00    12   0.568E+00-0.639E-02
CGA:   3    -0.141813971930E+02   -0.10872E+00   -0.10920E+00    12   0.842E-01-0.132E-03
CGA:   4    -0.142010757746E+02   -0.19679E-01   -0.19672E-01    12   0.153E-01-0.181E-04
CGA:   5    -0.142046367867E+02   -0.35610E-02   -0.35604E-02    12   0.290E-02-0.519E-05
CGA:   6    -0.142054151639E+02   -0.77838E-03   -0.77836E-03    12   0.653E-03-0.203E-05
CGA:   7    -0.142056090811E+02   -0.19392E-03   -0.19391E-03    12   0.188E-03 0.453E-06
CGA:   8    -0.142056740274E+02   -0.64946E-04   -0.64969E-04    12   0.659E-04-0.461E-06
CGA:   9    -0.142056966286E+02   -0.22601E-04   -0.22580E-04    12   0.196E-04 0.389E-06
CGA:  10    -0.142057030989E+02   -0.64703E-05   -0.64681E-05    12   0.481E-05 0.564E-07
CGA:  11    -0.142057045515E+02   -0.14527E-05   -0.14515E-05    12   0.911E-06 0.160E-06
CGA:  12    -0.142057048648E+02   -0.31324E-06   -0.31220E-06    12   0.186E-06 0.274E-07
  18 F= -.14205705E+02 E0= -.14205705E+02  d E =-.246119E-01  mag=     0.0000
       N       E                     dE             d eps       ncg     rms          ort
SDA:   1    -0.141534038261E+02    0.52301E-01    0.00000E+00    12   0.158E+00 0.000E+00
CGA:   2    -0.142002538752E+02   -0.46850E-01   -0.46851E-01    12   0.794E-01 0.365E-03
CGA:   3    -0.142158081356E+02   -0.15554E-01   -0.15535E-01    12   0.126E-01 0.396E-04
CGA:   4    -0.142187276166E+02   -0.29195E-02   -0.29200E-02    12   0.219E-02-0.560E-06
CGA:   5    -0.142192325366E+02   -0.50492E-03   -0.50503E-03    12   0.401E-03 0.180E-05
CGA:   6    -0.142193379862E+02   -0.10545E-03   -0.10546E-03    12   0.802E-04 0.577E-06
CGA:   7    -0.142193613837E+02   -0.23398E-04   -0.23397E-04    12   0.207E-04 0.411E-07
CGA:   8    -0.142193683918E+02   -0.70081E-05   -0.69967E-05    12   0.668E-05 0.218E-06
CGA:   9    -0.142193708493E+02   -0.24575E-05   -0.24594E-05    12   0.211E-05-0.246E-07
CGA:  10    -0.142193715705E+02   -0.72116E-06   -0.71982E-06    12   0.531E-06 0.293E-07
  19 F= -.14219372E+02 E0= -.14219372E+02  d E =-.382786E-01  mag=    -0.0000
       N       E                     dE             d eps       ncg     rms          ort
SDA:   1    -0.142172151004E+02    0.21557E-02    0.00000E+00    12   0.535E-02 0.000E+00
CGA:   2    -0.142188757042E+02   -0.16606E-02   -0.16606E-02    12   0.211E-02 0.260E-08
CGA:   3    -0.142193088757E+02   -0.43317E-03   -0.43302E-03    12   0.391E-03-0.139E-05
CGA:   4    -0.142193962825E+02   -0.87407E-04   -0.87347E-04    12   0.636E-04-0.907E-06
CGA:   5    -0.142194109421E+02   -0.14660E-04   -0.14677E-04    12   0.117E-04 0.296E-06
CGA:   6    -0.142194140255E+02   -0.30835E-05   -0.30824E-05    12   0.227E-05-0.422E-07
CGA:   7    -0.142194146755E+02   -0.64996E-06   -0.64970E-06    12   0.556E-06 0.517E-07
  20 F= -.14219415E+02 E0= -.14219415E+02  d E =-.431050E-04  mag=    -0.0000
       N       E                     dE             d eps       ncg     rms          ort
SDA:   1    -0.142191483065E+02    0.26572E-03    0.00000E+00    12   0.701E-03 0.000E+00
CGA:   2    -0.142193663631E+02   -0.21806E-03   -0.21805E-03    12   0.276E-03 0.368E-06
CGA:   3    -0.142194230367E+02   -0.56674E-04   -0.56721E-04    12   0.508E-04 0.561E-06
CGA:   4    -0.142194343891E+02   -0.11352E-04   -0.11374E-04    12   0.820E-05 0.353E-06
CGA:   5    -0.142194363225E+02   -0.19334E-05   -0.19281E-05    12   0.158E-05-0.112E-06
CGA:   6    -0.142194367175E+02   -0.39500E-06   -0.39560E-06    12   0.290E-06 0.207E-07
  21 F= -.14219437E+02 E0= -.14219437E+02  d E =-.651470E-04  mag=    -0.0000
       N       E                     dE             d eps       ncg     rms          ort
SDA:   1    -0.142192024289E+02    0.23389E-03    0.00000E+00    12   0.585E-03 0.000E+00
CGA:   2    -0.142193826602E+02   -0.18023E-03   -0.18023E-03    12   0.226E-03-0.143E-06
CGA:   3    -0.142194300458E+02   -0.47386E-04   -0.47351E-04    12   0.414E-04-0.484E-06
CGA:   4    -0.142194394651E+02   -0.94192E-05   -0.94093E-05    12   0.666E-05-0.203E-06
CGA:   5    -0.142194409974E+02   -0.15323E-05   -0.15354E-05    12   0.123E-05 0.702E-07
CGA:   6    -0.142194413193E+02   -0.32189E-06   -0.32166E-06    12   0.242E-06-0.118E-07
  22 F= -.14219441E+02 E0= -.14219441E+02  d E =-.460178E-05  mag=     0.0000
       N       E                     dE             d eps       ncg     rms          ort
SDA:   1    -0.142194100870E+02    0.30910E-04    0.00000E+00    12   0.839E-04 0.000E+00
CGA:   2    -0.142194359378E+02   -0.25851E-04   -0.25849E-04    12   0.325E-04 0.597E-07
CGA:   3    -0.142194426808E+02   -0.67430E-05   -0.67562E-05    12   0.593E-05 0.201E-06
CGA:   4    -0.142194440160E+02   -0.13352E-05   -0.13386E-05    12   0.887E-06 0.747E-07
CGA:   5    -0.142194442398E+02   -0.22379E-06   -0.22327E-06    12   0.185E-06-0.266E-07
CGA:   6    -0.142194442830E+02   -0.43220E-07   -0.43184E-07    12   0.321E-07 0.662E-08
  23 F= -.14219444E+02 E0= -.14219444E+02  d E =-.756549E-05  mag=    -0.0000
