 vasp.6.3.2 27Jun22 (build Sep  5 2022 18:50:32) complex                         
 executed on              LinuxNV date 2023.01.14  18:22:57
 running    4 mpi-ranks, with   20 threads/rank
 distrk:  each k-point on    4 cores,    1 groups
 distr:  one band on NCORE=   1 cores,    4 groups


--------------------------------------------------------------------------------------------------------


 INCAR:
   ISPIN = 2        (Spin polarised DFT)
   LORBIT = 11
   LREAL = .FALSE.       (Projection operators: automatic)
   ENCUT = 520        (Cut-off energy for plane wave basis set, in eV)
   PREC = Accurate   (Precision level: Normal or Accurate, set Accurate when perform structure lattice relaxation calculation)
   LWAVE = .TRUE.        (Write WAVECAR or not)
   LCHARG = .TRUE.        (Write CHGCAR or not)
   ADDGRID = .TRUE.        (Increase grid, helps GGA convergence)
   ALGO = All
   ISMEAR = -1            (Gaussian smearing, metals:1)
   SIGMA = 0.05         (Smearing value in eV, metals:0.2)
   NELM = 150           (Max electronic SCF steps)
   NELMIN = 6            (Min electronic SCF steps)
   EDIFF = 1E-06        (SCF energy convergence, in eV)
   NSW = 100          (Max ionic steps)
   IBRION = 2            (Algorithm: 0-MD, 1-Quasi-New, 2-CG)
   ISIF = 2            (Stress/relaxation: 2-Ions, 3-Shape/Ions/V, 4-Shape/Ions)
   EDIFFG = -1E-02        (Ionic convergence, eV/AA)

 POTCAR:    PAW_PBE H 15Jun2001                   
 POTCAR:    PAW_PBE O 08Apr2002                   
 -----------------------------------------------------------------------------
|                                                                             |
|           W    W    AA    RRRRR   N    N  II  N    N   GGGG   !!!           |
|           W    W   A  A   R    R  NN   N  II  NN   N  G    G  !!!           |
|           W    W  A    A  R    R  N N  N  II  N N  N  G       !!!           |
|           W WW W  AAAAAA  RRRRR   N  N N  II  N  N N  G  GGG   !            |
|           WW  WW  A    A  R   R   N   NN  II  N   NN  G    G                |
|           W    W  A    A  R    R  N    N  II  N    N   GGGG   !!!           |
|                                                                             |
|     You use a magnetic or noncollinear calculation, but did not specify     |
|     the initial magnetic moment with the MAGMOM tag. Note that a            |
|     default of 1 will be used for all atoms. This ferromagnetic setup       |
|     may break the symmetry of the crystal, in particular it may rule        |
|     out finding an antiferromagnetic solution. Thence, we recommend         |
|     setting the initial magnetic moment manually or verifying carefully     |
|     that this magnetic setup is desired.                                    |
|                                                                             |
 -----------------------------------------------------------------------------

 POTCAR:    PAW_PBE H 15Jun2001                   
   SHA256 =  030f79b5d3ab3cf0e668861823c8fb652ff669f3e15e46930bd03bfd63a607b6 H/POTCAR              
   COPYR  = (c) Copyright 15Jun2001 Georg Kresse                                                    
   COPYR  = This file is part of the software VASP. Any use, copying, and all other rights are regul
   COPYR  = If you do not have a valid VASP license, you may not use, copy or distribute this file. 
   VRHFIN =H: ultrasoft test                                                                        
   LEXCH  = PE                                                                                      
   EATOM  =    12.4884 eV,    0.9179 Ry                                                             
                                                                                                    
   TITEL  = PAW_PBE H 15Jun2001                                                                     
   LULTRA =        F    use ultrasoft PP ?                                                          
   IUNSCR =        0    unscreen: 0-lin 1-nonlin 2-no                                               
   RPACOR =    0.000    partial core radius                                                         
   POMASS =    1.000; ZVAL   =    1.000    mass and valenz                                          
   RCORE  =    1.100    outmost cutoff radius                                                       
   RWIGS  =    0.700; RWIGS  =    0.370    wigner-seitz radius (au A)                               
   ENMAX  =  250.000; ENMIN  =  200.000 eV                                                          
   RCLOC  =    0.701    cutoff for local pot                                                        
   LCOR   =        T    correct aug charges                                                         
   LPAW   =        T    paw PP                                                                      
   EAUG   =  400.000                                                                                
   RMAX   =    1.123    core radius for proj-oper                                                   
   RAUG   =    1.200    factor for augmentation sphere                                              
   RDEP   =    1.112    radius for radial grids                                                     
   RDEPT  =    0.926    core radius for aug-charge                                                  
                                                                                                    
   Atomic configuration                                                                             
    2 entries                                                                                       
     n  l   j            E        occ.                                                              
     1  0  0.50        -6.4927   1.0000                                                             
     2  1  0.50        -3.4015   0.0000                                                             
   Description                                                                                      
     l       E           TYP  RCUT    TYP  RCUT                                                     
     0     -6.4927494     23  1.100                                                                 
     0      6.8029130     23  1.100                                                                 
     1     -4.0817478     23  1.100                                                                 
  local pseudopotential read in
  atomic valenz-charges read in
  non local Contribution for L=            0  read in
    real space projection operators read in
  non local Contribution for L=            0  read in
    real space projection operators read in
  non local Contribution for L=            1  read in
    real space projection operators read in
    PAW grid and wavefunctions read in
 
   number of l-projection  operators is LMAX  =            3
   number of lm-projection operators is LMMAX =            5
 
 POTCAR:    PAW_PBE O 08Apr2002                   
   SHA256 =  818f92134a0a090dccd8ba1447fa70422a3b330e708bb4f08108d8ae51209ddf O/POTCAR              
   COPYR  = (c) Copyright 08Apr2002 Georg Kresse                                                    
   COPYR  = This file is part of the software VASP. Any use, copying, and all other rights are regul
   COPYR  = If you do not have a valid VASP license, you may not use, copy or distribute this file. 
   VRHFIN =O: s2p4                                                                                  
   LEXCH  = PE                                                                                      
   EATOM  =   432.3788 eV,   31.7789 Ry                                                             
                                                                                                    
   TITEL  = PAW_PBE O 08Apr2002                                                                     
   LULTRA =        F    use ultrasoft PP ?                                                          
   IUNSCR =        1    unscreen: 0-lin 1-nonlin 2-no                                               
   RPACOR =    1.200    partial core radius                                                         
   POMASS =   16.000; ZVAL   =    6.000    mass and valenz                                          
   RCORE  =    1.520    outmost cutoff radius                                                       
   RWIGS  =    1.550; RWIGS  =    0.820    wigner-seitz radius (au A)                               
   ENMAX  =  400.000; ENMIN  =  300.000 eV                                                          
   ICORE  =        2    local potential                                                             
   LCOR   =        T    correct aug charges                                                         
   LPAW   =        T    paw PP                                                                      
   EAUG   =  605.392                                                                                
   DEXC   =    0.000                                                                                
   RMAX   =    1.553    core radius for proj-oper                                                   
   RAUG   =    1.300    factor for augmentation sphere                                              
   RDEP   =    1.550    radius for radial grids                                                     
   RDEPT  =    1.329    core radius for aug-charge                                                  
                                                                                                    
   Atomic configuration                                                                             
    4 entries                                                                                       
     n  l   j            E        occ.                                                              
     1  0  0.50      -514.6923   2.0000                                                             
     2  0  0.50       -23.9615   2.0000                                                             
     2  1  0.50        -9.0305   4.0000                                                             
     3  2  1.50        -9.5241   0.0000                                                             
   Description                                                                                      
     l       E           TYP  RCUT    TYP  RCUT                                                     
     0    -23.9615318     23  1.200                                                                 
     0     -9.5240782     23  1.200                                                                 
     1     -9.0304911     23  1.520                                                                 
     1      8.1634956     23  1.520                                                                 
     2     -9.5240782      7  1.500                                                                 
  local pseudopotential read in
  partial core-charges read in
  partial kinetic energy density read in
  kinetic energy density of atom read in
  atomic valenz-charges read in
  non local Contribution for L=            0  read in
    real space projection operators read in
  non local Contribution for L=            0  read in
    real space projection operators read in
  non local Contribution for L=            1  read in
    real space projection operators read in
  non local Contribution for L=            1  read in
    real space projection operators read in
    PAW grid and wavefunctions read in
 
   number of l-projection  operators is LMAX  =            4
   number of lm-projection operators is LMMAX =            8
 
  PAW_PBE H 15Jun2001                   :
 energy of atom  1       EATOM=  -12.4884
 kinetic energy error for atom=    0.0014 (will be added to EATOM!!)
  PAW_PBE O 08Apr2002                   :
 energy of atom  2       EATOM= -432.3788
 kinetic energy error for atom=    0.0208 (will be added to EATOM!!)
 
 
 POSCAR: cif2pos.py
  positions in direct lattice
  No initial velocities read in
 exchange correlation table for  LEXCH =        8
   RHO(1)=    0.500       N(1)  =     2000
   RHO(2)=  100.500       N(2)  =     4000
 


--------------------------------------------------------------------------------------------------------


 ion  position               nearest neighbor table
   1  0.489  0.632  0.505-   3 0.74
   2  0.567  0.624  0.534-   3 1.11
   3  0.470  0.632  0.527-   1 0.74   2 1.11
 
  LATTYP: Found a simple orthorhombic cell.
 ALAT       =    11.1038000000
 B/A-ratio  =     1.0086817126
 C/A-ratio  =     2.9210360417
  
  Lattice vectors:
  
 A1 = (  11.1038000000,   0.0000000000,   0.0000000000)
 A2 = (   0.0000000000,  11.2002000000,   0.0000000000)
 A3 = (   0.0000000000,   0.0000000000,  32.4346000000)


Analysis of symmetry for initial positions (statically):
=====================================================================
 Subroutine PRICEL returns:
 Original cell was already a primitive cell.
 

 Routine SETGRP: Setting up the symmetry group for a 
 simple orthorhombic supercell.


 Subroutine GETGRP returns: Found  1 space group operations
 (whereof  1 operations were pure point group operations)
 out of a pool of  8 trial point group operations.


The static configuration has the point symmetry C_1 .


Analysis of symmetry for dynamics (positions and initial velocities):
=====================================================================
 Subroutine PRICEL returns:
 Original cell was already a primitive cell.
 

 Routine SETGRP: Setting up the symmetry group for a 
 simple orthorhombic supercell.


 Subroutine GETGRP returns: Found  1 space group operations
 (whereof  1 operations were pure point group operations)
 out of a pool of  8 trial point group operations.


The dynamic configuration has the point symmetry C_1 .


Analysis of structural, dynamic, and magnetic symmetry:
=====================================================================
 Subroutine PRICEL returns:
 Original cell was already a primitive cell.
 

 Routine SETGRP: Setting up the symmetry group for a 
 simple orthorhombic supercell.


 Subroutine GETGRP returns: Found  1 space group operations
 (whereof  1 operations were pure point group operations)
 out of a pool of  8 trial point group operations.


The overall configuration has the point symmetry C_1 .


 Subroutine INISYM returns: Found  1 space group operations
 (whereof  1 operations are pure point group operations),
 and found     1 'primitive' translations


----------------------------------------------------------------------------------------

                                     Primitive cell                                     

  volume of cell :    4033.7219

  direct lattice vectors                    reciprocal lattice vectors
    11.103800000  0.000000000  0.000000000     0.090059259  0.000000000  0.000000000
     0.000000000 11.200200000  0.000000000     0.000000000  0.089284120  0.000000000
     0.000000000  0.000000000 32.434600000     0.000000000  0.000000000  0.030831273

  length of vectors
    11.103800000 11.200200000 32.434600000     0.090059259  0.089284120  0.030831273

  position of ions in fractional coordinates (direct lattice)
     0.489080000  0.632490000  0.504920000
     0.567000000  0.623630000  0.533820000
     0.469590000  0.632190000  0.526730000

  ion indices of the primitive-cell ions
   primitive index   ion index
                 1           1
                 2           2
                 3           3

----------------------------------------------------------------------------------------

 
 
 KPOINTS: K-Spacing Value to Generate K-Mesh: 0.03

Automatic generation of k-mesh.
 Grid dimensions read from file:
 generate k-points for:    1    1    1

 Generating k-lattice:

  Cartesian coordinates                     Fractional coordinates (reciprocal lattice)
     0.090059259  0.000000000  0.000000000     1.000000000  0.000000000  0.000000000
     0.000000000  0.089284120  0.000000000     0.000000000  1.000000000  0.000000000
     0.000000000  0.000000000  0.030831273     0.000000000  0.000000000  1.000000000

  Length of vectors
     0.090059259  0.089284120  0.030831273

  Shift w.r.t. Gamma in fractional coordinates (k-lattice)
     0.000000000  0.000000000  0.000000000

 
 Subroutine IBZKPT returns following result:
 ===========================================
 
 Found      1 irreducible k-points:
 
 Following reciprocal coordinates:
            Coordinates               Weight
  0.000000  0.000000  0.000000      1.000000
 
 Following cartesian coordinates:
            Coordinates               Weight
  0.000000  0.000000  0.000000      1.000000
 


--------------------------------------------------------------------------------------------------------




 Dimension of arrays:
   k-points           NKPTS =      1   k-points in BZ     NKDIM =      1   number of bands    NBANDS=     12
   number of dos      NEDOS =    301   number of ions     NIONS =      3
   non local maximal  LDIM  =      4   non local SUM 2l+1 LMDIM =      8
   total plane-waves  NPLWV = ******
   max r-space proj   IRMAX =      1   max aug-charges    IRDMAX=  45583
   dimension x,y,z NGX =    84 NGY =   84 NGZ =  250
   dimension x,y,z NGXF=   168 NGYF=  168 NGZF=  500
   support grid    NGXF=   336 NGYF=  336 NGZF= 1000
   ions per type =               2   1
   NGX,Y,Z   is equivalent  to a cutoff of  12.58, 12.47, 12.81 a.u.
   NGXF,Y,Z  is equivalent  to a cutoff of  25.15, 24.94, 25.63 a.u.

 SYSTEM =  unknown system                          
 POSCAR =  cif2pos.py                              

 Startparameter for this run:
   NWRITE =      2    write-flag & timer
   PREC   = accura    normal or accurate (medium, high low for compatibility)
   ISTART =      0    job   : 0-new  1-cont  2-samecut
   ICHARG =      2    charge: 1-file 2-atom 10-const
   ISPIN  =      2    spin polarized calculation?
   LNONCOLLINEAR =      F non collinear calculations
   LSORBIT =      F    spin-orbit coupling
   INIWAV =      1    electr: 0-lowe 1-rand  2-diag
   LASPH  =      F    aspherical Exc in radial PAW
 Electronic Relaxation 1
   ENCUT  =  520.0 eV  38.22 Ry    6.18 a.u.  20.65 20.82 60.31*2*pi/ulx,y,z
   ENINI  =  520.0     initial cutoff
   ENAUG  =  605.4 eV  augmentation charge cutoff
   NELM   =    150;   NELMIN=  6; NELMDL= -5     # of ELM steps 
   EDIFF  = 0.1E-05   stopping-criterion for ELM
   LREAL  =      F    real-space projection
   NLSPLINE    = F    spline interpolate recip. space projectors
   LCOMPAT=      F    compatible to vasp.4.4
   GGA_COMPAT  = T    GGA compatible to vasp.4.4-vasp.4.6
   LMAXPAW     = -100 max onsite density
   LMAXMIX     =    2 max onsite mixed and CHGCAR
   VOSKOWN=      0    Vosko Wilk Nusair interpolation
   ROPT   =    0.00000   0.00000
 Ionic relaxation
   EDIFFG = -.1E-01   stopping-criterion for IOM
   NSW    =    100    number of steps for IOM
   NBLOCK =      1;   KBLOCK =    100    inner block; outer block 
   IBRION =      2    ionic relax: 0-MD 1-quasi-New 2-CG
   NFREE  =      1    steps in history (QN), initial steepest desc. (CG)
   ISIF   =      2    stress and relaxation
   IWAVPR =     11    prediction:  0-non 1-charg 2-wave 3-comb
   ISYM   =      2    0-nonsym 1-usesym 2-fastsym
   LCORR  =      T    Harris-Foulkes like correction to forces

   POTIM  = 0.5000    time-step for ionic-motion
   TEIN   =    0.0    initial temperature
   TEBEG  =    0.0;   TEEND  =   0.0 temperature during run
   SMASS  =  -3.00    Nose mass-parameter (am)
   estimated Nose-frequenzy (Omega)   =  0.10E-29 period in steps = 0.13E+47 mass=  -0.282E-26a.u.
   SCALEE = 1.0000    scale energy and forces
   NPACO  =    256;   APACO  = 10.0  distance and # of slots for P.C.
   PSTRESS=    0.0 pullay stress

  Mass of Ions in am
   POMASS =   1.00 16.00
  Ionic Valenz
   ZVAL   =   1.00  6.00
  Atomic Wigner-Seitz radii
   RWIGS  =  -1.00 -1.00
  virtual crystal weights 
   VCA    =   1.00  1.00
   NELECT =       8.0000    total number of electrons
   NUPDOWN=      -1.0000    fix difference up-down

 DOS related values:
   EMIN   =  10.00;   EMAX   =-10.00  energy-range for DOS
   EFERMI =   0.00
   ISMEAR =    -1;   SIGMA  =   0.05  broadening in eV -4-tet -1-fermi 0-gaus

 Electronic relaxation 2 (details)
   IALGO  =     58    algorithm
   LDIAG  =      T    sub-space diagonalisation (order eigenvalues)
   LSUBROT=      F    optimize rotation matrix (better conditioning)
   TURBO    =      0    0=normal 1=particle mesh
   IRESTART =      0    0=no restart 2=restart with 2 vectors
   NREBOOT  =      0    no. of reboots
   NMIN     =      0    reboot dimension
   EREF     =   0.00    reference energy to select bands
   IMIX   =      4    mixing-type and parameters
     AMIX     =   0.40;   BMIX     =  1.00
     AMIX_MAG =   1.60;   BMIX_MAG =  1.00
     AMIN     =   0.10
     WC   =   100.;   INIMIX=   1;  MIXPRE=   1;  MAXMIX= -45

 Intra band minimization:
   WEIMIN = 0.0010     energy-eigenvalue tresh-hold
   EBREAK =  0.21E-07  absolut break condition
   DEPER  =   0.30     relativ break condition  

   TIME   =   0.40     timestep for ELM

  volume/ion in A,a.u.               =    1344.57      9073.63
  Fermi-wavevector in a.u.,A,eV,Ry     =   0.205685  0.388688  0.575613  0.042306
  Thomas-Fermi vector in A             =   0.967064
 
 Write flags
   LWAVE        =      T    write WAVECAR
   LDOWNSAMPLE  =      F    k-point downsampling of WAVECAR
   LCHARG       =      T    write CHGCAR
   LVTOT        =      F    write LOCPOT, total local potential
   LVHAR        =      F    write LOCPOT, Hartree potential only
   LELF         =      F    write electronic localiz. function (ELF)
   LORBIT       =     11    0 simple, 1 ext, 2 COOP (PROOUT), +10 PAW based schemes


 Dipole corrections
   LMONO  =      F    monopole corrections only (constant potential shift)
   LDIPOL =      F    correct potential (dipole corrections)
   IDIPOL =      0    1-x, 2-y, 3-z, 4-all directions 
   EPSILON=  1.0000000 bulk dielectric constant

 Exchange correlation treatment:
   GGA     =    --    GGA type
   LEXCH   =     8    internal setting for exchange type
   LIBXC   =     F    Libxc                    
   VOSKOWN =     0    Vosko Wilk Nusair interpolation
   LHFCALC =     F    Hartree Fock is set to
   LHFONE  =     F    Hartree Fock one center treatment
   AEXX    =    0.0000 exact exchange contribution

 Linear response parameters
   LEPSILON=     F    determine dielectric tensor
   LRPA    =     F    only Hartree local field effects (RPA)
   LNABLA  =     F    use nabla operator in PAW spheres
   LVEL    =     F    velocity operator in full k-point grid
   CSHIFT  =0.1000    complex shift for real part using Kramers Kronig
   OMEGAMAX=  -1.0    maximum frequency
   DEG_THRESHOLD= 0.2000000E-02 threshold for treating states as degnerate
   RTIME   =   -0.100 relaxation time in fs
  (WPLASMAI=    0.000 imaginary part of plasma frequency in eV, 0.658/RTIME)
   DFIELD  = 0.0000000 0.0000000 0.0000000 field for delta impulse in time
 
  Optional k-point grid parameters
   LKPOINTS_OPT  =     F    use optional k-point grid
   KPOINTS_OPT_MODE=     1    mode for optional k-point grid
 
 Orbital magnetization related:
   ORBITALMAG=     F  switch on orbital magnetization
   LCHIMAG   =     F  perturbation theory with respect to B field
   DQ        =  0.001000  dq finite difference perturbation B field
   LLRAUG    =     F  two centre corrections for induced B field



--------------------------------------------------------------------------------------------------------


 conjugate gradient relaxation of ions
 charge density and potential will be updated during run
 spin polarized calculation
 Conjugate gradient for all bands (Freysoldt, et al. PRB 79, 241103 (2009))
 preconditioned conjugated gradient                                        
 perform sub-space diagonalisation
    before iterative eigenvector-optimisation
 modified Broyden-mixing scheme, WC =      100.0
 initial mixing is a Kerker type mixing with AMIX =  0.4000 and BMIX =      1.0000
 Hartree-type preconditioning will be used
 using additional bands             8
 reciprocal scheme for non local part
 use partial core corrections
 no Harris-corrections to forces 
 use gradient corrections 
 use of overlap-Matrix (Vanderbilt PP)
 Fermi-smearing in eV        SIGMA  =   0.05


--------------------------------------------------------------------------------------------------------


  energy-cutoff  :      520.00
  volume of cell :     4033.72
      direct lattice vectors                 reciprocal lattice vectors
    11.103800000  0.000000000  0.000000000     0.090059259  0.000000000  0.000000000
     0.000000000 11.200200000  0.000000000     0.000000000  0.089284120  0.000000000
     0.000000000  0.000000000 32.434600000     0.000000000  0.000000000  0.030831273

  length of vectors
    11.103800000 11.200200000 32.434600000     0.090059259  0.089284120  0.030831273


 
 k-points in units of 2pi/SCALE and weight: K-Spacing Value to Generate K-Mesh: 0.03
   0.00000000  0.00000000  0.00000000       1.000
 
 k-points in reciprocal lattice and weights: K-Spacing Value to Generate K-Mesh: 0.03
   0.00000000  0.00000000  0.00000000       1.000
 
 position of ions in fractional coordinates (direct lattice) 
   0.48908000  0.63249000  0.50492000
   0.56700000  0.62363000  0.53382000
   0.46959000  0.63219000  0.52673000
 
 position of ions in cartesian coordinates  (Angst):
   5.43064650  7.08401450 16.37687823
   6.29585460  6.98478073 17.31423817
   5.21423344  7.08065444 17.08427686
 


--------------------------------------------------------------------------------------------------------


 k-point   1 :   0.0000 0.0000 0.0000  plane waves:  108581

 maximum and minimum number of plane-waves per node :    108581   108581

 maximum number of plane-waves:    108581
 maximum index in each direction: 
   IXMAX=   20   IYMAX=   20   IZMAX=   60
   IXMIN=  -20   IYMIN=  -20   IZMIN=  -60


 serial   3D FFT for wavefunctions
 parallel 3D FFT for charge:
    minimum data exchange during FFTs selected (reduces bandwidth)


 total amount of memory used by VASP MPI-rank0  1026493. kBytes
=======================================================================

   base      :      30000. kBytes
   nonl-proj :      19110. kBytes
   fftplans  :     521602. kBytes
   grid      :     424488. kBytes
   one-center:         18. kBytes
   wavefun   :      31275. kBytes
 
     INWAV:  cpu time      0.0002: real time      0.0003
 Broyden mixing: mesh for mixing (old mesh)
   NGX = 41   NGY = 41   NGZ =121
  (NGX  =168   NGY  =168   NGZ  =500)
  gives a total of 203401 points

 initial charge density was supplied:
 charge density of overlapping atoms calculated
 number of electron       8.0000000 magnetization       3.0000000
 keeping initial charge density in first step


--------------------------------------------------------------------------------------------------------


 Maximum index for augmentation-charges         10949 (set IRDMAX)


--------------------------------------------------------------------------------------------------------


 First call to EWALD:  gamma=   0.111
 Maximum number of real-space cells 4x 4x 2
 Maximum number of reciprocal cells 2x 2x 5

    FEWALD:  cpu time      0.1733: real time      0.0355


--------------------------------------- Iteration      1(   1)  ---------------------------------------


    POTLOK:  cpu time      0.1583: real time      0.1823
    SETDIJ:  cpu time      1.7359: real time      1.4419
    TRIAL :  cpu time      0.1283: real time      0.1181
    CORREC:  cpu time      0.0003: real time      0.0003
    --------------------------------------------
      LOOP:  cpu time      2.0964: real time      1.8208

 eigenvalue-minimisations  :    72
 total energy-change (2. order) : 0.7636375E+02  (-0.1425788E+03)
 number of electron       8.0000000 magnetization       3.0000000
 augmentation part        8.0000000 magnetization       3.0000000

 Free energy of the ion-electron system (eV)
  ---------------------------------------------------
  alpha Z        PSCENC =         0.05559414
  Ewald energy   TEWEN  =       170.67061614
  -Hartree energ DENC   =      -516.81784320
  -exchange      EXHF   =         0.00000000
  -V(xc)+E(xc)   XCENC  =        33.30807712
  PAW double counting   =       349.99468356     -351.80531939
  entropy T*S    EENTRO =        -0.10885174
  eigenvalues    EBANDS =       -66.26513500
  atomic energy  EATOM  =       457.33192828
  ---------------------------------------------------
  free energy    TOTEN  =        76.36374991 eV

  energy without entropy =       76.47260165  energy(sigma->0) =       76.41817578


--------------------------------------------------------------------------------------------------------




--------------------------------------- Iteration      1(   2)  ---------------------------------------


    TRIAL :  cpu time      0.0702: real time      0.0690
    CORREC:  cpu time      0.0002: real time      0.0002
    --------------------------------------------
      LOOP:  cpu time      0.0706: real time      0.0698

 eigenvalue-minimisations  :    84
 total energy-change (2. order) :-0.6965657E+02  (-0.6661317E+02)
 number of electron       8.0000000 magnetization       3.0000000
 augmentation part        8.0000000 magnetization       3.0000000

 Free energy of the ion-electron system (eV)
  ---------------------------------------------------
  alpha Z        PSCENC =         0.05559414
  Ewald energy   TEWEN  =       170.67061614
  -Hartree energ DENC   =      -516.81784320
  -exchange      EXHF   =         0.00000000
  -V(xc)+E(xc)   XCENC  =        33.30807712
  PAW double counting   =       349.99468356     -351.80531939
  entropy T*S    EENTRO =        -0.00000000
  eigenvalues    EBANDS =      -136.03056090
  atomic energy  EATOM  =       457.33192828
  ---------------------------------------------------
  free energy    TOTEN  =         6.70717575 eV

  energy without entropy =        6.70717575  energy(sigma->0) =        6.70717575


--------------------------------------------------------------------------------------------------------




--------------------------------------- Iteration      1(   3)  ---------------------------------------


    TRIAL :  cpu time      0.0569: real time      0.0556
    CORREC:  cpu time      0.0001: real time      0.0001
    --------------------------------------------
      LOOP:  cpu time      0.0572: real time      0.0563

 eigenvalue-minimisations  :    60
 total energy-change (2. order) :-0.1607963E+02  (-0.1606258E+02)
 number of electron       8.0000000 magnetization       3.0000000
 augmentation part        8.0000000 magnetization       3.0000000

 Free energy of the ion-electron system (eV)
  ---------------------------------------------------
  alpha Z        PSCENC =         0.05559414
  Ewald energy   TEWEN  =       170.67061614
  -Hartree energ DENC   =      -516.81784320
  -exchange      EXHF   =         0.00000000
  -V(xc)+E(xc)   XCENC  =        33.30807712
  PAW double counting   =       349.99468356     -351.80531939
  entropy T*S    EENTRO =        -0.00000000
  eigenvalues    EBANDS =      -152.11019150
  atomic energy  EATOM  =       457.33192828
  ---------------------------------------------------
  free energy    TOTEN  =        -9.37245485 eV

  energy without entropy =       -9.37245485  energy(sigma->0) =       -9.37245485


--------------------------------------------------------------------------------------------------------




--------------------------------------- Iteration      1(   4)  ---------------------------------------


    TRIAL :  cpu time      0.0538: real time      0.0525
    CORREC:  cpu time      0.0001: real time      0.0001
    --------------------------------------------
      LOOP:  cpu time      0.0541: real time      0.0532

 eigenvalue-minimisations  :    56
 total energy-change (2. order) :-0.7329692E+00  (-0.7327950E+00)
 number of electron       8.0000000 magnetization       3.0000000
 augmentation part        8.0000000 magnetization       3.0000000

 Free energy of the ion-electron system (eV)
  ---------------------------------------------------
  alpha Z        PSCENC =         0.05559414
  Ewald energy   TEWEN  =       170.67061614
  -Hartree energ DENC   =      -516.81784320
  -exchange      EXHF   =         0.00000000
  -V(xc)+E(xc)   XCENC  =        33.30807712
  PAW double counting   =       349.99468356     -351.80531939
  entropy T*S    EENTRO =        -0.00000000
  eigenvalues    EBANDS =      -152.84316075
  atomic energy  EATOM  =       457.33192828
  ---------------------------------------------------
  free energy    TOTEN  =       -10.10542410 eV

  energy without entropy =      -10.10542410  energy(sigma->0) =      -10.10542410


--------------------------------------------------------------------------------------------------------




--------------------------------------- Iteration      1(   5)  ---------------------------------------


    TRIAL :  cpu time      0.0556: real time      0.0543
    CORREC:  cpu time      0.0001: real time      0.0001
    CHARGE:  cpu time      1.5827: real time      1.3928
    --------------------------------------------
      LOOP:  cpu time      1.6387: real time      1.4478

 eigenvalue-minimisations  :    60
 total energy-change (2. order) :-0.5953117E-02  (-0.5953104E-02)
 number of electron       8.0000000 magnetization       0.0000000
 augmentation part        0.9208961 magnetization      -0.0222043

 Free energy of the ion-electron system (eV)
  ---------------------------------------------------
  alpha Z        PSCENC =         0.05559414
  Ewald energy   TEWEN  =       170.67061614
  -Hartree energ DENC   =      -516.81784320
  -exchange      EXHF   =         0.00000000
  -V(xc)+E(xc)   XCENC  =        33.30807712
  PAW double counting   =       349.99468356     -351.80531939
  entropy T*S    EENTRO =        -0.00000000
  eigenvalues    EBANDS =      -152.84911386
  atomic energy  EATOM  =       457.33192828
  ---------------------------------------------------
  free energy    TOTEN  =       -10.11137722 eV

  energy without entropy =      -10.11137722  energy(sigma->0) =      -10.11137722


--------------------------------------------------------------------------------------------------------




--------------------------------------- Iteration      1(   6)  ---------------------------------------


    POTLOK:  cpu time      0.1279: real time      0.1254
    SETDIJ:  cpu time      1.6353: real time      1.4256
    TRIAL :  cpu time      0.0620: real time      0.0486
    CORREC:  cpu time      3.3561: real time      2.9754
    CHARGE:  cpu time      1.5710: real time      1.3925
    --------------------------------------------
      LOOP:  cpu time      6.7543: real time      5.9696

 eigenvalue-minimisations  :     0
 total energy-change (2. order) : 0.5098796E+01  (-0.4580968E+01)
 number of electron       8.0000000 magnetization       0.0000000
 augmentation part        0.7755710 magnetization      -0.0155057

 Free energy of the ion-electron system (eV)
  ---------------------------------------------------
  alpha Z        PSCENC =         0.05559414
  Ewald energy   TEWEN  =       170.67061614
  -Hartree energ DENC   =      -620.29437110
  -exchange      EXHF   =         0.00000000
  -V(xc)+E(xc)   XCENC  =        38.01572341
  PAW double counting   =       710.59450845     -713.89197306
  entropy T*S    EENTRO =        -0.00000000
  eigenvalues    EBANDS =       -47.49460764
  atomic energy  EATOM  =       457.33192828
  ---------------------------------------------------
  free energy    TOTEN  =        -5.01258138 eV

  energy without entropy =       -5.01258138  energy(sigma->0) =       -5.01258138


--------------------------------------------------------------------------------------------------------




--------------------------------------- Iteration      1(   7)  ---------------------------------------


    POTLOK:  cpu time      0.1275: real time      0.1253
    SETDIJ:  cpu time      1.6773: real time      1.4173
    TRIAL :  cpu time      0.0633: real time      0.0467
    CORREC:  cpu time      3.3507: real time      2.9651
    CHARGE:  cpu time      1.5469: real time      1.3870
    --------------------------------------------
      LOOP:  cpu time      6.7665: real time      5.9422

 eigenvalue-minimisations  :     0
 total energy-change (2. order) :-0.4769813E+01  (-0.6909960E+00)
 number of electron       8.0000000 magnetization       0.0000000
 augmentation part        0.7265075 magnetization      -0.0143011

 Free energy of the ion-electron system (eV)
  ---------------------------------------------------
  alpha Z        PSCENC =         0.05559414
  Ewald energy   TEWEN  =       170.67061614
  -Hartree energ DENC   =      -560.86213142
  -exchange      EXHF   =         0.00000000
  -V(xc)+E(xc)   XCENC  =        34.74529396
  PAW double counting   =       624.59210179     -627.15252237
  entropy T*S    EENTRO =        -0.00000000
  eigenvalues    EBANDS =      -109.16327485
  atomic energy  EATOM  =       457.33192828
  ---------------------------------------------------
  free energy    TOTEN  =        -9.78239433 eV

  energy without entropy =       -9.78239433  energy(sigma->0) =       -9.78239433


--------------------------------------------------------------------------------------------------------




--------------------------------------- Iteration      1(   8)  ---------------------------------------


    POTLOK:  cpu time      0.1268: real time      0.1248
    SETDIJ:  cpu time      1.6004: real time      1.3949
    TRIAL :  cpu time      0.0667: real time      0.0484
    CORREC:  cpu time      3.4433: real time      2.9456
    CHARGE:  cpu time      1.5574: real time      1.3937
    --------------------------------------------
      LOOP:  cpu time      6.7953: real time      5.9083

 eigenvalue-minimisations  :     0
 total energy-change (2. order) :-0.6895243E+00  (-0.3461027E+00)
 number of electron       8.0000000 magnetization       0.0000000
 augmentation part        0.7226087 magnetization      -0.0114095

 Free energy of the ion-electron system (eV)
  ---------------------------------------------------
  alpha Z        PSCENC =         0.05559414
  Ewald energy   TEWEN  =       170.67061614
  -Hartree energ DENC   =      -557.20939257
  -exchange      EXHF   =         0.00000000
  -V(xc)+E(xc)   XCENC  =        34.59246853
  PAW double counting   =       619.72263174     -621.96732633
  entropy T*S    EENTRO =        -0.00000000
  eigenvalues    EBANDS =      -113.66843859
  atomic energy  EATOM  =       457.33192828
  ---------------------------------------------------
  free energy    TOTEN  =       -10.47191866 eV

  energy without entropy =      -10.47191866  energy(sigma->0) =      -10.47191866


--------------------------------------------------------------------------------------------------------




--------------------------------------- Iteration      1(   9)  ---------------------------------------


    POTLOK:  cpu time      0.1267: real time      0.1243
    SETDIJ:  cpu time      1.6078: real time      1.3823
    TRIAL :  cpu time      0.0614: real time      0.0466
    CORREC:  cpu time      3.3325: real time      2.9541
    CHARGE:  cpu time      1.5547: real time      1.3886
    --------------------------------------------
      LOOP:  cpu time      6.6838: real time      5.8970

 eigenvalue-minimisations  :     0
 total energy-change (2. order) :-0.3456666E+00  (-0.1337638E+00)
 number of electron       8.0000000 magnetization       0.0000000
 augmentation part        0.7274424 magnetization      -0.0064650

 Free energy of the ion-electron system (eV)
  ---------------------------------------------------
  alpha Z        PSCENC =         0.05559414
  Ewald energy   TEWEN  =       170.67061614
  -Hartree energ DENC   =      -559.46206144
  -exchange      EXHF   =         0.00000000
  -V(xc)+E(xc)   XCENC  =        34.77069871
  PAW double counting   =       621.33797405     -623.52324399
  entropy T*S    EENTRO =        -0.00000000
  eigenvalues    EBANDS =      -111.99909118
  atomic energy  EATOM  =       457.33192828
  ---------------------------------------------------
  free energy    TOTEN  =       -10.81758529 eV

  energy without entropy =      -10.81758529  energy(sigma->0) =      -10.81758529


--------------------------------------------------------------------------------------------------------




--------------------------------------- Iteration      1(  10)  ---------------------------------------


    POTLOK:  cpu time      0.1276: real time      0.1251
    SETDIJ:  cpu time      1.6272: real time      1.4175
    TRIAL :  cpu time      0.0667: real time      0.0482
    CORREC:  cpu time      3.3158: real time      2.9466
    CHARGE:  cpu time      1.5575: real time      1.3931
    --------------------------------------------
      LOOP:  cpu time      6.6957: real time      5.9318

 eigenvalue-minimisations  :     0
 total energy-change (2. order) :-0.1328715E+00  (-0.4163308E-01)
 number of electron       8.0000000 magnetization       0.0000000
 augmentation part        0.7277630 magnetization      -0.0028147

 Free energy of the ion-electron system (eV)
  ---------------------------------------------------
  alpha Z        PSCENC =         0.05559414
  Ewald energy   TEWEN  =       170.67061614
  -Hartree energ DENC   =      -558.56455172
  -exchange      EXHF   =         0.00000000
  -V(xc)+E(xc)   XCENC  =        34.73404678
  PAW double counting   =       617.07035515     -619.28564489
  entropy T*S    EENTRO =        -0.00000000
  eigenvalues    EBANDS =      -112.96280069
  atomic energy  EATOM  =       457.33192828
  ---------------------------------------------------
  free energy    TOTEN  =       -10.95045681 eV

  energy without entropy =      -10.95045681  energy(sigma->0) =      -10.95045681


--------------------------------------------------------------------------------------------------------




--------------------------------------- Iteration      1(  11)  ---------------------------------------


    POTLOK:  cpu time      0.1266: real time      0.1240
    SETDIJ:  cpu time      1.6331: real time      1.4138
    TRIAL :  cpu time      0.0668: real time      0.0469
    CORREC:  cpu time      3.4598: real time      2.9620
    CHARGE:  cpu time      1.5390: real time      1.3830
    --------------------------------------------
      LOOP:  cpu time      6.8258: real time      5.9306

 eigenvalue-minimisations  :     0
 total energy-change (2. order) :-0.4148778E-01  (-0.1282986E-01)
 number of electron       8.0000000 magnetization       0.0000000
 augmentation part        0.7285174 magnetization      -0.0009482

 Free energy of the ion-electron system (eV)
  ---------------------------------------------------
  alpha Z        PSCENC =         0.05559414
  Ewald energy   TEWEN  =       170.67061614
  -Hartree energ DENC   =      -557.72916034
  -exchange      EXHF   =         0.00000000
  -V(xc)+E(xc)   XCENC  =        34.68681459
  PAW double counting   =       613.29963865     -615.52574233
  entropy T*S    EENTRO =        -0.00000000
  eigenvalues    EBANDS =      -113.78163371
  atomic energy  EATOM  =       457.33192828
  ---------------------------------------------------
  free energy    TOTEN  =       -10.99194459 eV

  energy without entropy =      -10.99194459  energy(sigma->0) =      -10.99194459


--------------------------------------------------------------------------------------------------------




--------------------------------------- Iteration      1(  12)  ---------------------------------------


    POTLOK:  cpu time      0.1277: real time      0.1256
    SETDIJ:  cpu time      1.5599: real time      1.3926
    TRIAL :  cpu time      0.0739: real time      0.0539
    CORREC:  cpu time      3.4390: real time      2.9402
    CHARGE:  cpu time      1.5472: real time      1.3839
    --------------------------------------------
      LOOP:  cpu time      6.7486: real time      5.8972

 eigenvalue-minimisations  :     0
 total energy-change (2. order) :-0.1280407E-01  (-0.4248625E-02)
 number of electron       8.0000000 magnetization       0.0000000
 augmentation part        0.7293300 magnetization      -0.0002787

 Free energy of the ion-electron system (eV)
  ---------------------------------------------------
  alpha Z        PSCENC =         0.05559414
  Ewald energy   TEWEN  =       170.67061614
  -Hartree energ DENC   =      -557.33885932
  -exchange      EXHF   =         0.00000000
  -V(xc)+E(xc)   XCENC  =        34.66439574
  PAW double counting   =       611.25599967     -613.49409408
  entropy T*S    EENTRO =        -0.00000000
  eigenvalues    EBANDS =      -114.15032923
  atomic energy  EATOM  =       457.33192828
  ---------------------------------------------------
  free energy    TOTEN  =       -11.00474866 eV

  energy without entropy =      -11.00474866  energy(sigma->0) =      -11.00474866


--------------------------------------------------------------------------------------------------------




--------------------------------------- Iteration      1(  13)  ---------------------------------------


    POTLOK:  cpu time      0.1275: real time      0.1252
    SETDIJ:  cpu time      1.6340: real time      1.4056
    TRIAL :  cpu time      0.0629: real time      0.0474
    CORREC:  cpu time      3.3788: real time      2.9448
    CHARGE:  cpu time      1.5436: real time      1.3862
    --------------------------------------------
      LOOP:  cpu time      6.7475: real time      5.9103

 eigenvalue-minimisations  :     0
 total energy-change (2. order) :-0.4247602E-02  (-0.1455392E-02)
 number of electron       8.0000000 magnetization       0.0000000
 augmentation part        0.7290441 magnetization      -0.0001045

 Free energy of the ion-electron system (eV)
  ---------------------------------------------------
  alpha Z        PSCENC =         0.05559414
  Ewald energy   TEWEN  =       170.67061614
  -Hartree energ DENC   =      -557.31539804
  -exchange      EXHF   =         0.00000000
  -V(xc)+E(xc)   XCENC  =        34.66194680
  PAW double counting   =       610.88545103     -613.13198399
  entropy T*S    EENTRO =        -0.00000000
  eigenvalues    EBANDS =      -114.16715062
  atomic energy  EATOM  =       457.33192828
  ---------------------------------------------------
  free energy    TOTEN  =       -11.00899627 eV

  energy without entropy =      -11.00899627  energy(sigma->0) =      -11.00899627


--------------------------------------------------------------------------------------------------------




--------------------------------------- Iteration      1(  14)  ---------------------------------------


    POTLOK:  cpu time      0.1286: real time      0.1261
    SETDIJ:  cpu time      1.6591: real time      1.4094
    TRIAL :  cpu time      0.0615: real time      0.0474
    CORREC:  cpu time      3.3359: real time      2.9342
    CHARGE:  cpu time      1.5608: real time      1.3876
    --------------------------------------------
      LOOP:  cpu time      6.7466: real time      5.9058

 eigenvalue-minimisations  :     0
 total energy-change (2. order) :-0.1455552E-02  (-0.5017446E-03)
 number of electron       8.0000000 magnetization       0.0000000
 augmentation part        0.7288558 magnetization      -0.0001035

 Free energy of the ion-electron system (eV)
  ---------------------------------------------------
  alpha Z        PSCENC =         0.05559414
  Ewald energy   TEWEN  =       170.67061614
  -Hartree energ DENC   =      -557.20616497
  -exchange      EXHF   =         0.00000000
  -V(xc)+E(xc)   XCENC  =        34.65434396
  PAW double counting   =       610.87241434     -613.11879374
  entropy T*S    EENTRO =        -0.00000000
  eigenvalues    EBANDS =      -114.27038997
  atomic energy  EATOM  =       457.33192828
  ---------------------------------------------------
  free energy    TOTEN  =       -11.01045182 eV

  energy without entropy =      -11.01045182  energy(sigma->0) =      -11.01045182


--------------------------------------------------------------------------------------------------------




--------------------------------------- Iteration      1(  15)  ---------------------------------------


    POTLOK:  cpu time      0.1269: real time      0.1252
    SETDIJ:  cpu time      1.6413: real time      1.4043
    TRIAL :  cpu time      0.0668: real time      0.0482
    CORREC:  cpu time      3.3448: real time      2.9367
    CHARGE:  cpu time      1.5498: real time      1.3866
    --------------------------------------------
      LOOP:  cpu time      6.7305: real time      5.9019

 eigenvalue-minimisations  :     0
 total energy-change (2. order) :-0.5014881E-03  (-0.1687789E-03)
 number of electron       8.0000000 magnetization       0.0000000
 augmentation part        0.7287248 magnetization      -0.0001357

 Free energy of the ion-electron system (eV)
  ---------------------------------------------------
  alpha Z        PSCENC =         0.05559414
  Ewald energy   TEWEN  =       170.67061614
  -Hartree energ DENC   =      -557.24573920
  -exchange      EXHF   =         0.00000000
  -V(xc)+E(xc)   XCENC  =        34.65583024
  PAW double counting   =       611.20334236     -613.44805288
  entropy T*S    EENTRO =        -0.00000000
  eigenvalues    EBANDS =      -114.23447239
  atomic energy  EATOM  =       457.33192828
  ---------------------------------------------------
  free energy    TOTEN  =       -11.01095331 eV

  energy without entropy =      -11.01095331  energy(sigma->0) =      -11.01095331


--------------------------------------------------------------------------------------------------------




--------------------------------------- Iteration      1(  16)  ---------------------------------------


    POTLOK:  cpu time      0.1272: real time      0.1251
    SETDIJ:  cpu time      1.6037: real time      1.4028
    TRIAL :  cpu time      0.0643: real time      0.0465
    CORREC:  cpu time      3.3508: real time      2.9499
    CHARGE:  cpu time      1.6415: real time      1.4000
    --------------------------------------------
      LOOP:  cpu time      6.7883: real time      5.9252

 eigenvalue-minimisations  :     0
 total energy-change (2. order) :-0.1685802E-03  (-0.5796342E-04)
 number of electron       8.0000000 magnetization       0.0000000
 augmentation part        0.7287207 magnetization      -0.0001417

 Free energy of the ion-electron system (eV)
  ---------------------------------------------------
  alpha Z        PSCENC =         0.05559414
  Ewald energy   TEWEN  =       170.67061614
  -Hartree energ DENC   =      -557.24951278
  -exchange      EXHF   =         0.00000000
  -V(xc)+E(xc)   XCENC  =        34.65590939
  PAW double counting   =       611.38629207     -613.62968121
  entropy T*S    EENTRO =        -0.00000000
  eigenvalues    EBANDS =      -114.23226790
  atomic energy  EATOM  =       457.33192828
  ---------------------------------------------------
  free energy    TOTEN  =       -11.01112189 eV

  energy without entropy =      -11.01112189  energy(sigma->0) =      -11.01112189


--------------------------------------------------------------------------------------------------------




--------------------------------------- Iteration      1(  17)  ---------------------------------------


    POTLOK:  cpu time      0.1277: real time      0.1254
    SETDIJ:  cpu time      1.6024: real time      1.4134
    TRIAL :  cpu time      0.0664: real time      0.0469
    CORREC:  cpu time      3.3354: real time      2.9504
    CHARGE:  cpu time      1.5724: real time      1.3890
    --------------------------------------------
      LOOP:  cpu time      6.7050: real time      5.9261

 eigenvalue-minimisations  :     0
 total energy-change (2. order) :-0.5786959E-04  (-0.1892166E-04)
 number of electron       8.0000000 magnetization       0.0000000
 augmentation part        0.7287457 magnetization      -0.0001178

 Free energy of the ion-electron system (eV)
  ---------------------------------------------------
  alpha Z        PSCENC =         0.05559414
  Ewald energy   TEWEN  =       170.67061614
  -Hartree energ DENC   =      -557.26881405
  -exchange      EXHF   =         0.00000000
  -V(xc)+E(xc)   XCENC  =        34.65694227
  PAW double counting   =       611.47971060     -613.72263330
  entropy T*S    EENTRO =        -0.00000000
  eigenvalues    EBANDS =      -114.21452383
  atomic energy  EATOM  =       457.33192828
  ---------------------------------------------------
  free energy    TOTEN  =       -11.01117976 eV

  energy without entropy =      -11.01117976  energy(sigma->0) =      -11.01117976


--------------------------------------------------------------------------------------------------------




--------------------------------------- Iteration      1(  18)  ---------------------------------------


    POTLOK:  cpu time      0.1273: real time      0.1252
    SETDIJ:  cpu time      1.6600: real time      1.4120
    TRIAL :  cpu time      0.0601: real time      0.0483
    CORREC:  cpu time      3.3893: real time      2.9650
    CHARGE:  cpu time      1.5603: real time      1.3886
    --------------------------------------------
      LOOP:  cpu time      6.7978: real time      5.9400

 eigenvalue-minimisations  :     0
 total energy-change (2. order) :-0.1889693E-04  (-0.6113406E-05)
 number of electron       8.0000000 magnetization       0.0000000
 augmentation part        0.7287584 magnetization      -0.0000810

 Free energy of the ion-electron system (eV)
  ---------------------------------------------------
  alpha Z        PSCENC =         0.05559414
  Ewald energy   TEWEN  =       170.67061614
  -Hartree energ DENC   =      -557.28203893
  -exchange      EXHF   =         0.00000000
  -V(xc)+E(xc)   XCENC  =        34.65765262
  PAW double counting   =       611.49135844     -613.73424672
  entropy T*S    EENTRO =        -0.00000000
  eigenvalues    EBANDS =      -114.20206261
  atomic energy  EATOM  =       457.33192828
  ---------------------------------------------------
  free energy    TOTEN  =       -11.01119865 eV

  energy without entropy =      -11.01119865  energy(sigma->0) =      -11.01119865


--------------------------------------------------------------------------------------------------------




--------------------------------------- Iteration      1(  19)  ---------------------------------------


    POTLOK:  cpu time      0.1269: real time      0.1248
    SETDIJ:  cpu time      1.6376: real time      1.4124
    TRIAL :  cpu time      0.0682: real time      0.0462
    CORREC:  cpu time      3.4244: real time      2.9503
    CHARGE:  cpu time      1.5556: real time      1.3858
    --------------------------------------------
      LOOP:  cpu time      6.8135: real time      5.9205

 eigenvalue-minimisations  :     0
 total energy-change (2. order) :-0.6128044E-05  (-0.1864916E-05)
 number of electron       8.0000000 magnetization       0.0000000
 augmentation part        0.7287826 magnetization      -0.0000463

 Free energy of the ion-electron system (eV)
  ---------------------------------------------------
  alpha Z        PSCENC =         0.05559414
  Ewald energy   TEWEN  =       170.67061614
  -Hartree energ DENC   =      -557.28145172
  -exchange      EXHF   =         0.00000000
  -V(xc)+E(xc)   XCENC  =        34.65763219
  PAW double counting   =       611.46224644     -613.70522687
  entropy T*S    EENTRO =        -0.00000000
  eigenvalues    EBANDS =      -114.20254339
  atomic energy  EATOM  =       457.33192828
  ---------------------------------------------------
  free energy    TOTEN  =       -11.01120478 eV

  energy without entropy =      -11.01120478  energy(sigma->0) =      -11.01120478


--------------------------------------------------------------------------------------------------------




--------------------------------------- Iteration      1(  20)  ---------------------------------------


    POTLOK:  cpu time      0.1281: real time      0.1257
    SETDIJ:  cpu time      1.6257: real time      1.4190
    TRIAL :  cpu time      0.0680: real time      0.0496
    CORREC:  cpu time      3.3689: real time      2.9361
    CHARGE:  cpu time      1.5542: real time      1.3846
    --------------------------------------------
      LOOP:  cpu time      6.7454: real time      5.9158

 eigenvalue-minimisations  :     0
 total energy-change (2. order) :-0.1875376E-05  (-0.5597232E-06)
 number of electron       8.0000000 magnetization      -0.0000000
 augmentation part        0.7287827 magnetization      -0.0000231

 Free energy of the ion-electron system (eV)
  ---------------------------------------------------
  alpha Z        PSCENC =         0.05559414
  Ewald energy   TEWEN  =       170.67061614
  -Hartree energ DENC   =      -557.28635040
  -exchange      EXHF   =         0.00000000
  -V(xc)+E(xc)   XCENC  =        34.65792618
  PAW double counting   =       611.45048619     -613.69362781
  entropy T*S    EENTRO =        -0.00000000
  eigenvalues    EBANDS =      -114.19777937
  atomic energy  EATOM  =       457.33192828
  ---------------------------------------------------
  free energy    TOTEN  =       -11.01120666 eV

  energy without entropy =      -11.01120666  energy(sigma->0) =      -11.01120666


--------------------------------------------------------------------------------------------------------




--------------------------------------- Iteration      1(  21)  ---------------------------------------


    POTLOK:  cpu time      0.1280: real time      0.1259
    SETDIJ:  cpu time      1.6164: real time      1.3892
    TRIAL :  cpu time      0.0783: real time      0.0474
    CORREC:  cpu time      3.3313: real time      2.9326
    EDDIAG:  cpu time      0.0118: real time      0.0118
    CHARGE:  cpu time      1.5527: real time      1.3864
    --------------------------------------------
      LOOP:  cpu time      6.7191: real time      5.8941

 eigenvalue-minimisations  :     0
 total energy-change (2. order) :-0.5674624E-06  (-0.1769458E-06)
 number of electron       8.0000000 magnetization      -0.0000000
 augmentation part        0.7287853 magnetization      -0.0000078

 Free energy of the ion-electron system (eV)
  ---------------------------------------------------
  alpha Z        PSCENC =         0.05559414
  Ewald energy   TEWEN  =       170.67061614
  -Hartree energ DENC   =      -557.28401221
  -exchange      EXHF   =         0.00000000
  -V(xc)+E(xc)   XCENC  =        34.65780730
  PAW double counting   =       611.43873667     -613.68191685
  entropy T*S    EENTRO =        -0.00000000
  eigenvalues    EBANDS =      -114.19996069
  atomic energy  EATOM  =       457.33192828
  ---------------------------------------------------
  free energy    TOTEN  =       -11.01120722 eV

  energy without entropy =      -11.01120722  energy(sigma->0) =      -11.01120722


--------------------------------------------------------------------------------------------------------


  average scaling for gradient   1.2798


 average (electrostatic) potential at core
  the test charge radii are     0.5201  0.7215
  (the norm of the test charge is              1.0000)
       1 -52.3520       2 -43.9588       3 -81.0027
 
 
 
 E-fermi :  -6.2172     XC(G=0):  -0.1399     alpha+bet : -0.0323

 Fermi energy:        -6.2172131680

 spin component 1

 k-point     1 :       0.0000    0.0000    0.0000
  band No.  band energies     occupation 
      1     -27.1061      1.00000
      2     -12.3485      1.00000
      3     -10.2205      1.00000
      4      -7.4247      1.00000
      5      -1.3606      0.00000
      6       0.0055      0.00000
      7       0.1220      0.00000
      8       0.2531      0.00000
      9       0.4996      0.00000
     10       0.6345      0.00000
     11       0.9093      0.00000
     12       0.9177      0.00000
 Fermi energy:        -6.2172131680

 spin component 2

 k-point     1 :       0.0000    0.0000    0.0000
  band No.  band energies     occupation 
      1     -27.1061      1.00000
      2     -12.3485      1.00000
      3     -10.2206      1.00000
      4      -7.4247      1.00000
      5      -1.3606      0.00000
      6       0.0057      0.00000
      7       0.1220      0.00000
      8       0.2529      0.00000
      9       0.4647      0.00000
     10       0.6320      0.00000
     11       0.9019      0.00000
     12       0.9367      0.00000


--------------------------------------------------------------------------------------------------------


 soft charge-density along one line, spin component            1
         0         1         2         3         4         5         6         7         8         9
 total charge-density along one line
 
 soft charge-density along one line, spin component            2
         0         1         2         3         4         5         6         7         8         9
 total charge-density along one line
 
 pseudopotential strength for first ion, spin component:            1
 -2.461  -4.269   0.000  -0.005   0.001
 -4.269  -7.316   0.000  -0.025   0.007
  0.000   0.000  -0.290  -0.000  -0.000
 -0.005  -0.025  -0.000  -0.249  -0.012
  0.001   0.007  -0.000  -0.012  -0.286
 pseudopotential strength for first ion, spin component:            2
 -2.461  -4.269   0.000  -0.005   0.001
 -4.269  -7.316   0.000  -0.025   0.007
  0.000   0.000  -0.290  -0.000  -0.000
 -0.005  -0.025  -0.000  -0.249  -0.012
  0.001   0.007  -0.000  -0.012  -0.286
 total augmentation occupancy for first ion, spin component:            1
  3.633  -0.715  -0.006   1.090  -0.318
 -0.715   0.552   0.001   0.039  -0.025
 -0.006   0.001   0.182   0.000   0.005
  1.090   0.039   0.000   0.492  -0.117
 -0.318  -0.025   0.005  -0.117   0.168
 total augmentation occupancy for first ion, spin component:            2
 -0.000   0.000  -0.000  -0.000   0.000
  0.000   0.000   0.000   0.000  -0.000
 -0.000   0.000  -0.000  -0.000   0.000
 -0.000   0.000  -0.000  -0.000   0.000
  0.000  -0.000   0.000   0.000  -0.000


------------------------ aborting loop because EDIFF is reached ----------------------------------------





 total charge

# of ion       s       p       d       tot
------------------------------------------
    1        0.966   0.500   0.000   1.466
    2        0.505   0.055   0.000   0.560
    3        1.608   3.701   0.000   5.309
--------------------------------------------------
tot          3.079   4.256   0.000   7.335



 magnetization (x)

# of ion       s       p       d       tot
------------------------------------------
    1        0.000  -0.000   0.000   0.000
    2        0.000   0.000   0.000   0.000
    3       -0.000  -0.000   0.000  -0.000
--------------------------------------------------
tot          0.000  -0.000   0.000  -0.000
 
    FORLOC:  cpu time      0.0221: real time      0.0220
    FORNL :  cpu time      9.6461: real time      8.4782
    STRESS:  cpu time     30.4129: real time     27.0463
    FORCOR:  cpu time      0.0995: real time      0.0813
    OFIELD:  cpu time      0.0122: real time      0.0122

  FORCE on cell =-STRESS in cart. coord.  units (eV):
  Direction    XX          YY          ZZ          XY          YZ          ZX
  --------------------------------------------------------------------------------------
  Alpha Z     0.05559     0.05559     0.05559
  Ewald     134.84900    45.19441    -9.37281    -6.93994    -2.52915   -11.44783
  Hartree   250.83090   231.47621    74.97738    -1.48234    -0.35475    -0.37104
  E(xc)     -36.68198   -37.08246   -36.78493    -0.03237    -0.00676    -0.02700
  Local    -470.97580  -387.57396  -128.51056     6.48302     1.94849     5.66157
  n-local   -31.09977   -32.04151   -33.26157    -0.13313    -0.11385     1.85286
  augment     6.53629     8.58420     5.82889     0.16595     0.07231     0.09756
  Kinetic   143.71995   171.28210   148.24550     2.32596     0.80784    -1.36240
  Fock        0.00000     0.00000     0.00000     0.00000     0.00000     0.00000
  -------------------------------------------------------------------------------------
  Total      -2.76582    -0.10542    21.17751     0.38714    -0.17588    -5.59627
  in kB      -1.09857    -0.04187     8.41162     0.15377    -0.06986    -2.22281
  external pressure =        2.42 kB  Pullay stress =        0.00 kB


 VOLUME and BASIS-vectors are now :
 -----------------------------------------------------------------------------
  energy-cutoff  :      520.00
  volume of cell :     4033.72
      direct lattice vectors                 reciprocal lattice vectors
    11.103800000  0.000000000  0.000000000     0.090059259  0.000000000  0.000000000
     0.000000000 11.200200000  0.000000000     0.000000000  0.089284120  0.000000000
     0.000000000  0.000000000 32.434600000     0.000000000  0.000000000  0.030831273

  length of vectors
    11.103800000 11.200200000 32.434600000     0.090059259  0.089284120  0.030831273


 FORCES acting on ions:
    Electron-Ion                     Ewald-Force                    Non-Local-Force
 -----------------------------------------------------------------------------------------------
   -.280E+02 -.979E+00 0.110E+03   0.402E+02 0.139E+01 -.158E+03   -.551E+01 -.722E-01 0.176E+02
   -.728E+02 0.656E+01 -.192E+02   0.739E+02 -.671E+01 0.211E+02   -.495E+01 0.441E+00 -.113E+01
   0.660E+02 -.332E+01 -.707E+02   -.114E+03 0.532E+01 0.137E+03   0.453E+02 -.263E+01 -.369E+02
 -----------------------------------------------------------------------------------------------
   -.349E+02 0.226E+01 0.204E+02   0.000E+00 0.000E+00 0.000E+00   0.349E+02 -.226E+01 -.204E+02
 
 
 POSITION                                       TOTAL-FORCE (eV/Angst)
 -----------------------------------------------------------------------------------
      5.43065      7.08401     16.37688         6.673295      0.342455    -29.787653
      6.29585      6.98478     17.31424        -3.806507      0.289510      0.793367
      5.21423      7.08065     17.08428        -2.866787     -0.631965     28.994286
 -----------------------------------------------------------------------------------
    total drift:                               -0.000566      0.000143     -0.000396


--------------------------------------------------------------------------------------------------------



  FREE ENERGIE OF THE ION-ELECTRON SYSTEM (eV)
  ---------------------------------------------------
  free  energy   TOTEN  =       -11.01120722 eV

  energy  without entropy=      -11.01120722  energy(sigma->0) =      -11.01120722
 


--------------------------------------------------------------------------------------------------------


    POTLOK:  cpu time      1.8035: real time      1.5954


--------------------------------------------------------------------------------------------------------




--------------------------------------------------------------------------------------------------------


    WAVPRE:  cpu time     12.2186: real time     12.0926
    FEWALD:  cpu time      0.1217: real time      0.0165
    ORTHCH:  cpu time      0.0249: real time      0.0250
    POTLOK:  cpu time      6.3039: real time      5.2575
    EDDIAG:  cpu time      0.0419: real time      0.0312
    CHARGE:  cpu time      1.8596: real time      1.4898
     LOOP+:  cpu time    176.2704: real time    155.7919


--------------------------------------- Iteration      2(   1)  ---------------------------------------


    POTLOK:  cpu time      0.1272: real time      0.1249
    SETDIJ:  cpu time      1.7669: real time      1.4133
    TRIAL :  cpu time      0.0792: real time      0.0572
    CORREC:  cpu time      3.3925: real time      2.9588
    CHARGE:  cpu time      1.5581: real time      1.3874
    --------------------------------------------
      LOOP:  cpu time      6.9862: real time      6.0073

 eigenvalue-minimisations  :     0
 total energy-change (2. order) : 0.3902585E+03  (-0.1278091E+03)
 number of electron       8.0000000 magnetization       0.0000003
 augmentation part       -0.0028864 magnetization       0.0003582

 Free energy of the ion-electron system (eV)
  ---------------------------------------------------
  alpha Z        PSCENC =         0.05559414
  Ewald energy   TEWEN  =        49.02440009
  -Hartree energ DENC   =       -33.01838564
  -exchange      EXHF   =         0.00000000
  -V(xc)+E(xc)   XCENC  =         7.14532914
  PAW double counting   =         7.12346272       -7.12829317
  entropy T*S    EENTRO =        -0.00006994
  eigenvalues    EBANDS =      -101.18518184
  atomic energy  EATOM  =       457.33192828
  ---------------------------------------------------
  free energy    TOTEN  =       379.24726885 eV

  energy without entropy =      379.24733879  energy(sigma->0) =      379.24730382


--------------------------------------------------------------------------------------------------------




--------------------------------------- Iteration      2(   2)  ---------------------------------------


    POTLOK:  cpu time      0.1273: real time      0.1249
    SETDIJ:  cpu time      1.6612: real time      1.4245
    TRIAL :  cpu time      0.0634: real time      0.0477
    CORREC:  cpu time      3.3764: real time      2.9735
    CHARGE:  cpu time      1.5528: real time      1.3839
    --------------------------------------------
      LOOP:  cpu time      6.7817: real time      5.9554

 eigenvalue-minimisations  :     0
 total energy-change (2. order) :-0.1241492E+03  (-0.1347149E+03)
 number of electron       8.0000000 magnetization      -0.0000000
 augmentation part       -0.0001816 magnetization      -0.0005587

 Free energy of the ion-electron system (eV)
  ---------------------------------------------------
  alpha Z        PSCENC =         0.05559414
  Ewald energy   TEWEN  =        49.02440009
  -Hartree energ DENC   =      -129.70435349
  -exchange      EXHF   =         0.00000000
  -V(xc)+E(xc)   XCENC  =        10.75156150
  PAW double counting   =        14.18283544      -14.28259504
  entropy T*S    EENTRO =        -0.00000000
  eigenvalues    EBANDS =      -132.26119014
  atomic energy  EATOM  =       457.33192828
  ---------------------------------------------------
  free energy    TOTEN  =       255.09811083 eV

  energy without entropy =      255.09811083  energy(sigma->0) =      255.09811083


--------------------------------------------------------------------------------------------------------




--------------------------------------- Iteration      2(   3)  ---------------------------------------


    POTLOK:  cpu time      0.1269: real time      0.1246
    SETDIJ:  cpu time      1.6893: real time      1.4334
    TRIAL :  cpu time      0.0637: real time      0.0475
    CORREC:  cpu time      3.4849: real time      2.9575
    CHARGE:  cpu time      1.5610: real time      1.3884
    --------------------------------------------
      LOOP:  cpu time      6.9264: real time      5.9521

 eigenvalue-minimisations  :     0
 total energy-change (2. order) :-0.1318676E+03  (-0.8185641E+02)
 number of electron       8.0000000 magnetization      -0.0000000
 augmentation part        0.0947025 magnetization      -0.0004681

 Free energy of the ion-electron system (eV)
  ---------------------------------------------------
  alpha Z        PSCENC =         0.05559414
  Ewald energy   TEWEN  =        49.02440009
  -Hartree energ DENC   =      -239.30852824
  -exchange      EXHF   =         0.00000000
  -V(xc)+E(xc)   XCENC  =        17.35641488
  PAW double counting   =       190.91940069     -191.43164187
  entropy T*S    EENTRO =        -0.00000000
  eigenvalues    EBANDS =      -160.71708767
  atomic energy  EATOM  =       457.33192828
  ---------------------------------------------------
  free energy    TOTEN  =       123.23048031 eV

  energy without entropy =      123.23048031  energy(sigma->0) =      123.23048031


--------------------------------------------------------------------------------------------------------




--------------------------------------- Iteration      2(   4)  ---------------------------------------


    POTLOK:  cpu time      0.1270: real time      0.1249
    SETDIJ:  cpu time      1.6228: real time      1.4121
    TRIAL :  cpu time      0.0583: real time      0.0471
    CORREC:  cpu time      3.2904: real time      2.9248
    CHARGE:  cpu time      1.5604: real time      1.3863
    --------------------------------------------
      LOOP:  cpu time      6.6596: real time      5.8960

 eigenvalue-minimisations  :     0
 total energy-change (2. order) :-0.4652135E+02  (-0.5838625E+02)
 number of electron       8.0000000 magnetization      -0.0000000
 augmentation part        0.2858015 magnetization      -0.0003266

 Free energy of the ion-electron system (eV)
  ---------------------------------------------------
  alpha Z        PSCENC =         0.05559414
  Ewald energy   TEWEN  =        49.02440009
  -Hartree energ DENC   =      -316.79707916
  -exchange      EXHF   =         0.00000000
  -V(xc)+E(xc)   XCENC  =        21.58668455
  PAW double counting   =       343.10105764     -343.78899304
  entropy T*S    EENTRO =        -0.00000000
  eigenvalues    EBANDS =      -133.80446246
  atomic energy  EATOM  =       457.33192828
  ---------------------------------------------------
  free energy    TOTEN  =        76.70913004 eV

  energy without entropy =       76.70913004  energy(sigma->0) =       76.70913004


--------------------------------------------------------------------------------------------------------




--------------------------------------- Iteration      2(   5)  ---------------------------------------


    POTLOK:  cpu time      0.1290: real time      0.1266
    SETDIJ:  cpu time      1.5768: real time      1.4075
    TRIAL :  cpu time      0.0759: real time      0.0505
    CORREC:  cpu time      3.3880: real time      2.9418
    CHARGE:  cpu time      1.7091: real time      1.3932
    --------------------------------------------
      LOOP:  cpu time      6.8799: real time      5.9208

 eigenvalue-minimisations  :     0
 total energy-change (2. order) :-0.4135855E+02  (-0.2299417E+02)
 number of electron       8.0000000 magnetization      -0.0000000
 augmentation part        0.5643718 magnetization      -0.0010609

 Free energy of the ion-electron system (eV)
  ---------------------------------------------------
  alpha Z        PSCENC =         0.05559414
  Ewald energy   TEWEN  =        49.02440009
  -Hartree energ DENC   =      -396.29648482
  -exchange      EXHF   =         0.00000000
  -V(xc)+E(xc)   XCENC  =        26.00322423
  PAW double counting   =       492.93479475     -494.01437078
  entropy T*S    EENTRO =        -0.00000000
  eigenvalues    EBANDS =       -99.68850505
  atomic energy  EATOM  =       457.33192828
  ---------------------------------------------------
  free energy    TOTEN  =        35.35058084 eV

  energy without entropy =       35.35058084  energy(sigma->0) =       35.35058084


--------------------------------------------------------------------------------------------------------




--------------------------------------- Iteration      2(   6)  ---------------------------------------


    POTLOK:  cpu time      0.1278: real time      0.1254
    SETDIJ:  cpu time      1.6217: real time      1.4188
    TRIAL :  cpu time      0.0649: real time      0.0464
    CORREC:  cpu time      3.3812: real time      2.9458
    CHARGE:  cpu time      1.8211: real time      1.3966
    --------------------------------------------
      LOOP:  cpu time      7.0175: real time      5.9337

 eigenvalue-minimisations  :     0
 total energy-change (2. order) :-0.2200418E+02  (-0.1716971E+02)
 number of electron       8.0000000 magnetization      -0.0000004
 augmentation part        0.4326923 magnetization       0.0013729

 Free energy of the ion-electron system (eV)
  ---------------------------------------------------
  alpha Z        PSCENC =         0.05559414
  Ewald energy   TEWEN  =        49.02440009
  -Hartree energ DENC   =      -465.42324197
  -exchange      EXHF   =         0.00000000
  -V(xc)+E(xc)   XCENC  =        30.06509302
  PAW double counting   =       554.25046653     -556.21236683
  entropy T*S    EENTRO =        -0.00000325
  eigenvalues    EBANDS =       -55.74547225
  atomic energy  EATOM  =       457.33192828
  ---------------------------------------------------
  free energy    TOTEN  =        13.34640101 eV

  energy without entropy =       13.34640426  energy(sigma->0) =       13.34640263


--------------------------------------------------------------------------------------------------------




--------------------------------------- Iteration      2(   7)  ---------------------------------------


    POTLOK:  cpu time      0.1240: real time      0.1234
    SETDIJ:  cpu time      1.6113: real time      1.4083
    TRIAL :  cpu time      0.0601: real time      0.0486
    CORREC:  cpu time      3.3544: real time      2.9481
    CHARGE:  cpu time      1.7590: real time      1.4008
    --------------------------------------------
      LOOP:  cpu time      6.9126: real time      5.9331

 eigenvalue-minimisations  :     0
 total energy-change (2. order) : 0.2729923E+01  (-0.9239484E+01)
 number of electron       8.0000000 magnetization       0.0000000
 augmentation part        0.5898822 magnetization      -0.0041426

 Free energy of the ion-electron system (eV)
  ---------------------------------------------------
  alpha Z        PSCENC =         0.05559414
  Ewald energy   TEWEN  =        49.02440009
  -Hartree energ DENC   =      -368.10435253
  -exchange      EXHF   =         0.00000000
  -V(xc)+E(xc)   XCENC  =        28.42567962
  PAW double counting   =       288.09293273     -289.88803563
  entropy T*S    EENTRO =        -0.00000219
  eigenvalues    EBANDS =      -148.86181905
  atomic energy  EATOM  =       457.33192828
  ---------------------------------------------------
  free energy    TOTEN  =        16.07632440 eV

  energy without entropy =       16.07632660  energy(sigma->0) =       16.07632550


--------------------------------------------------------------------------------------------------------




--------------------------------------- Iteration      2(   8)  ---------------------------------------


    POTLOK:  cpu time      0.1253: real time      0.1248
    SETDIJ:  cpu time      1.5807: real time      1.4002
    TRIAL :  cpu time      0.0654: real time      0.0533
    CORREC:  cpu time      3.3421: real time      2.9229
    CHARGE:  cpu time      1.5804: real time      1.3847
    --------------------------------------------
      LOOP:  cpu time      6.6948: real time      5.8869

 eigenvalue-minimisations  :     0
 total energy-change (2. order) :-0.1522590E+02  (-0.2038574E+01)
 number of electron       8.0000000 magnetization       0.0000008
 augmentation part        0.6511023 magnetization      -0.0111543

 Free energy of the ion-electron system (eV)
  ---------------------------------------------------
  alpha Z        PSCENC =         0.05559414
  Ewald energy   TEWEN  =        49.02440009
  -Hartree energ DENC   =      -433.58184885
  -exchange      EXHF   =         0.00000000
  -V(xc)+E(xc)   XCENC  =        31.18347715
  PAW double counting   =       380.71539284     -382.99284110
  entropy T*S    EENTRO =        -0.00000310
[...]
 opt step  =   0.23583  (harmonic =   0.23583) maximal distance =0.00018359
 next E    =   -14.219444   (d E  =  -0.00001)


--------------------------------------------------------------------------------------------------------


    WAVPRE:  cpu time      0.3225: real time      0.2027
    FEWALD:  cpu time      0.1147: real time      0.0111
    ORTHCH:  cpu time      0.0256: real time      0.0246
    POTLOK:  cpu time      6.0810: real time      5.2185
    EDDIAG:  cpu time      0.0608: real time      0.0367
    CHARGE:  cpu time      1.6058: real time      1.3710
     LOOP+:  cpu time     92.4854: real time     81.1309


--------------------------------------- Iteration     23(   1)  ---------------------------------------


    POTLOK:  cpu time      0.1310: real time      0.1286
    SETDIJ:  cpu time      1.6172: real time      1.4095
    TRIAL :  cpu time      0.0662: real time      0.0480
    CORREC:  cpu time      3.3092: real time      2.9459
    CHARGE:  cpu time      1.5646: real time      1.3918
    --------------------------------------------
      LOOP:  cpu time      6.7469: real time      5.9839

 eigenvalue-minimisations  :     0
 total energy-change (2. order) : 0.3091041E-04  (-0.2584868E-04)
 number of electron       8.0000000 magnetization      -0.0000000
 augmentation part        0.6913116 magnetization       0.0000000

 Free energy of the ion-electron system (eV)
  ---------------------------------------------------
  alpha Z        PSCENC =         0.05559414
  Ewald energy   TEWEN  =       151.81383706
  -Hartree energ DENC   =      -545.87575911
  -exchange      EXHF   =         0.00000000
  -V(xc)+E(xc)   XCENC  =        34.02610567
  PAW double counting   =       544.87703929     -546.97182075
  entropy T*S    EENTRO =        -0.00000000
  eigenvalues    EBANDS =      -109.47633467
  atomic energy  EATOM  =       457.33192828
  ---------------------------------------------------
  free energy    TOTEN  =       -14.21941009 eV

  energy without entropy =      -14.21941009  energy(sigma->0) =      -14.21941009


--------------------------------------------------------------------------------------------------------




--------------------------------------- Iteration     23(   2)  ---------------------------------------


    POTLOK:  cpu time      0.1255: real time      0.1236
    SETDIJ:  cpu time      1.6033: real time      1.4058
    TRIAL :  cpu time      0.0768: real time      0.0513
    CORREC:  cpu time      3.3787: real time      2.9446
    CHARGE:  cpu time      1.5550: real time      1.3883
    --------------------------------------------
      LOOP:  cpu time      6.7411: real time      5.9155

 eigenvalue-minimisations  :     0
 total energy-change (2. order) :-0.2585083E-04  (-0.6756177E-05)
 number of electron       8.0000000 magnetization       0.0000000
 augmentation part        0.6913485 magnetization       0.0000000

 Free energy of the ion-electron system (eV)
  ---------------------------------------------------
  alpha Z        PSCENC =         0.05559414
  Ewald energy   TEWEN  =       151.81383706
  -Hartree energ DENC   =      -545.87035406
  -exchange      EXHF   =         0.00000000
  -V(xc)+E(xc)   XCENC  =        34.02578807
  PAW double counting   =       544.87374720     -546.96859332
  entropy T*S    EENTRO =        -0.00000000
  eigenvalues    EBANDS =      -109.48138330
  atomic energy  EATOM  =       457.33192828
  ---------------------------------------------------
  free energy    TOTEN  =       -14.21943594 eV

  energy without entropy =      -14.21943594  energy(sigma->0) =      -14.21943594


--------------------------------------------------------------------------------------------------------




--------------------------------------- Iteration     23(   3)  ---------------------------------------


    POTLOK:  cpu time      0.1273: real time      0.1250
    SETDIJ:  cpu time      1.5985: real time      1.4009
    TRIAL :  cpu time      0.0724: real time      0.0487
    CORREC:  cpu time      3.3881: real time      2.9548
    CHARGE:  cpu time      1.5683: real time      1.3966
    --------------------------------------------
      LOOP:  cpu time      6.7581: real time      5.9297

 eigenvalue-minimisations  :     0
 total energy-change (2. order) :-0.6742968E-05  (-0.1338643E-05)
 number of electron       8.0000000 magnetization       0.0000000
 augmentation part        0.6913518 magnetization       0.0000000

 Free energy of the ion-electron system (eV)
  ---------------------------------------------------
  alpha Z        PSCENC =         0.05559414
  Ewald energy   TEWEN  =       151.81383706
  -Hartree energ DENC   =      -545.87223485
  -exchange      EXHF   =         0.00000000
  -V(xc)+E(xc)   XCENC  =        34.02590468
  PAW double counting   =       544.87588739     -546.97093957
  entropy T*S    EENTRO =        -0.00000000
  eigenvalues    EBANDS =      -109.47941982
  atomic energy  EATOM  =       457.33192828
  ---------------------------------------------------
  free energy    TOTEN  =       -14.21944268 eV

  energy without entropy =      -14.21944268  energy(sigma->0) =      -14.21944268


--------------------------------------------------------------------------------------------------------




--------------------------------------- Iteration     23(   4)  ---------------------------------------


    POTLOK:  cpu time      0.1243: real time      0.1223
    SETDIJ:  cpu time      1.6276: real time      1.4166
    TRIAL :  cpu time      0.0607: real time      0.0473
    CORREC:  cpu time      3.4549: real time      2.9670
    CHARGE:  cpu time      1.5521: real time      1.3852
    --------------------------------------------
      LOOP:  cpu time      6.8231: real time      5.9420

 eigenvalue-minimisations  :     0
 total energy-change (2. order) :-0.1335202E-05  (-0.2232746E-06)
 number of electron       8.0000000 magnetization       0.0000000
 augmentation part        0.6913527 magnetization      -0.0000000

 Free energy of the ion-electron system (eV)
  ---------------------------------------------------
  alpha Z        PSCENC =         0.05559414
  Ewald energy   TEWEN  =       151.81383706
  -Hartree energ DENC   =      -545.86988271
  -exchange      EXHF   =         0.00000000
  -V(xc)+E(xc)   XCENC  =        34.02579574
  PAW double counting   =       544.87028972     -546.96539131
  entropy T*S    EENTRO =        -0.00000000
  eigenvalues    EBANDS =      -109.48161492
  atomic energy  EATOM  =       457.33192828
  ---------------------------------------------------
  free energy    TOTEN  =       -14.21944402 eV

  energy without entropy =      -14.21944402  energy(sigma->0) =      -14.21944402


--------------------------------------------------------------------------------------------------------




--------------------------------------- Iteration     23(   5)  ---------------------------------------


    POTLOK:  cpu time      0.1237: real time      0.1217
    SETDIJ:  cpu time      1.6664: real time      1.4169
    TRIAL :  cpu time      0.0619: real time      0.0476
    CORREC:  cpu time      3.3387: real time      2.9640
    CHARGE:  cpu time      1.6054: real time      1.3989
    --------------------------------------------
      LOOP:  cpu time      6.7989: real time      5.9521

 eigenvalue-minimisations  :     0
 total energy-change (2. order) :-0.2237946E-06  (-0.4318398E-07)
 number of electron       8.0000000 magnetization      -0.0000000
 augmentation part        0.6913515 magnetization      -0.0000000

 Free energy of the ion-electron system (eV)
  ---------------------------------------------------
  alpha Z        PSCENC =         0.05559414
  Ewald energy   TEWEN  =       151.81383706
  -Hartree energ DENC   =      -545.87116658
  -exchange      EXHF   =         0.00000000
  -V(xc)+E(xc)   XCENC  =        34.02587257
  PAW double counting   =       544.87092795     -546.96603719
  entropy T*S    EENTRO =        -0.00000000
  eigenvalues    EBANDS =      -109.48040047
  atomic energy  EATOM  =       457.33192828
  ---------------------------------------------------
  free energy    TOTEN  =       -14.21944424 eV

  energy without entropy =      -14.21944424  energy(sigma->0) =      -14.21944424


--------------------------------------------------------------------------------------------------------




--------------------------------------- Iteration     23(   6)  ---------------------------------------


    POTLOK:  cpu time      0.1250: real time      0.1229
    SETDIJ:  cpu time      1.5808: real time      1.4067
    TRIAL :  cpu time      0.0772: real time      0.0495
    CORREC:  cpu time      3.4221: real time      2.9634
    EDDIAG:  cpu time      0.0118: real time      0.0118
    CHARGE:  cpu time      1.5627: real time      1.3991
    --------------------------------------------
      LOOP:  cpu time      6.7820: real time      5.9562

 eigenvalue-minimisations  :     0
 total energy-change (2. order) :-0.4321998E-07  (-0.1195267E-07)
 number of electron       8.0000000 magnetization      -0.0000000
 augmentation part        0.6913522 magnetization      -0.0000000

 Free energy of the ion-electron system (eV)
  ---------------------------------------------------
  alpha Z        PSCENC =         0.05559414
  Ewald energy   TEWEN  =       151.81383706
  -Hartree energ DENC   =      -545.87058499
  -exchange      EXHF   =         0.00000000
  -V(xc)+E(xc)   XCENC  =        34.02583857
  PAW double counting   =       544.86965500     -546.96476368
  entropy T*S    EENTRO =        -0.00000000
  eigenvalues    EBANDS =      -109.48094867
  atomic energy  EATOM  =       457.33192828
  ---------------------------------------------------
  free energy    TOTEN  =       -14.21944428 eV

  energy without entropy =      -14.21944428  energy(sigma->0) =      -14.21944428


--------------------------------------------------------------------------------------------------------


  average scaling for gradient   1.3029


 average (electrostatic) potential at core
  the test charge radii are     0.5201  0.7215
  (the norm of the test charge is              1.0000)
       1 -44.6866       2 -44.6748       3 -80.5374
 
 
 
 E-fermi :  -5.9423     XC(G=0):  -0.1434     alpha+bet : -0.0323

 Fermi energy:        -5.9422904238

 spin component 1

 k-point     1 :       0.0000    0.0000    0.0000
  band No.  band energies     occupation 
      1     -25.2701      1.00000
      2     -13.0642      1.00000
      3      -9.2361      1.00000
      4      -7.1699      1.00000
      5      -0.9906      0.00000
      6       0.0217      0.00000
      7       0.1183      0.00000
      8       0.3372      0.00000
      9       0.4228      0.00000
     10       0.6809      0.00000
     11       0.7844      0.00000
     12       0.9073      0.00000
 Fermi energy:        -5.9422904238

 spin component 2

 k-point     1 :       0.0000    0.0000    0.0000
  band No.  band energies     occupation 
      1     -25.2701      1.00000
      2     -13.0642      1.00000
      3      -9.2361      1.00000
      4      -7.1699      1.00000
      5      -0.9906      0.00000
      6       0.0217      0.00000
      7       0.1183      0.00000
      8       0.3372      0.00000
      9       0.4228      0.00000
     10       0.6809      0.00000
     11       0.7844      0.00000
     12       0.9073      0.00000


--------------------------------------------------------------------------------------------------------


 soft charge-density along one line, spin component            1
         0         1         2         3         4         5         6         7         8         9
 total charge-density along one line
 
 soft charge-density along one line, spin component            2
         0         1         2         3         4         5         6         7         8         9
 total charge-density along one line
 
 pseudopotential strength for first ion, spin component:            1
 -2.384  -4.117   0.000  -0.003  -0.000
 -4.117  -7.022   0.000  -0.009  -0.000
  0.000   0.000  -0.324  -0.000  -0.000
 -0.003  -0.009  -0.000  -0.314  -0.000
 -0.000  -0.000  -0.000  -0.000  -0.324
 pseudopotential strength for first ion, spin component:            2
 -2.384  -4.117   0.000  -0.003  -0.000
 -4.117  -7.022   0.000  -0.009  -0.000
  0.000   0.000  -0.324  -0.000  -0.000
 -0.003  -0.009  -0.000  -0.314  -0.000
 -0.000  -0.000  -0.000  -0.000  -0.324
 total augmentation occupancy for first ion, spin component:            1
  3.798  -0.806  -0.021   0.717  -0.010
 -0.806   0.221   0.004  -0.148   0.007
 -0.021   0.004   0.040  -0.003   0.001
  0.717  -0.148  -0.003   0.136  -0.004
 -0.010   0.007   0.001  -0.004   0.026
 total augmentation occupancy for first ion, spin component:            2
  0.000  -0.000   0.000   0.000  -0.000
 -0.000   0.000   0.000  -0.000  -0.000
  0.000   0.000  -0.000   0.000  -0.000
  0.000  -0.000   0.000   0.000   0.000
 -0.000  -0.000  -0.000   0.000  -0.000


------------------------ aborting loop because EDIFF is reached ----------------------------------------





 total charge

# of ion       s       p       d       tot
------------------------------------------
    1        0.627   0.120   0.000   0.747
    2        0.626   0.120   0.000   0.746
    3        1.566   3.601   0.000   5.168
--------------------------------------------------
tot          2.819   3.842   0.000   6.661



 magnetization (x)

# of ion       s       p       d       tot
------------------------------------------
    1       -0.000   0.000   0.000  -0.000
    2       -0.000   0.000   0.000   0.000
    3        0.000  -0.000   0.000  -0.000
--------------------------------------------------
tot         -0.000   0.000   0.000   0.000
 
    FORLOC:  cpu time      0.0218: real time      0.0217
    FORNL :  cpu time      9.4637: real time      8.3664
    STRESS:  cpu time     30.3199: real time     26.8466
    FORCOR:  cpu time      0.1060: real time      0.0829
    OFIELD:  cpu time      0.0121: real time      0.0121

  FORCE on cell =-STRESS in cart. coord.  units (eV):
  Direction    XX          YY          ZZ          XY          YZ          ZX
  --------------------------------------------------------------------------------------
  Alpha Z     0.05559     0.05559     0.05559
  Ewald     130.29430    45.19040   -23.67087    -7.68483    -5.10407    25.12573
  Hartree   242.98176   227.02388    75.86555    -1.35469    -0.88661     4.26791
  E(xc)     -36.06090   -36.41896   -35.99867    -0.03248    -0.02031     0.09259
  Local    -456.74147  -381.09665  -130.87688     6.71755     4.49504   -22.30554
  n-local   -30.74002   -30.85323   -30.48881    -0.02108    -0.04281     0.38671
  augment     6.42813     8.15368     6.12161     0.15669     0.09854    -0.45187
  Kinetic   143.72199   167.88929   138.94593     2.21822     1.45932    -7.11268
  Fock        0.00000     0.00000     0.00000     0.00000     0.00000     0.00000
  -------------------------------------------------------------------------------------
  Total      -0.06061    -0.05600    -0.04655    -0.00061    -0.00090     0.00284
  in kB      -0.02407    -0.02224    -0.01849    -0.00024    -0.00036     0.00113
  external pressure =       -0.02 kB  Pullay stress =        0.00 kB


 VOLUME and BASIS-vectors are now :
 -----------------------------------------------------------------------------
  energy-cutoff  :      520.00
  volume of cell :     4033.72
      direct lattice vectors                 reciprocal lattice vectors
    11.103800000  0.000000000  0.000000000     0.090059259  0.000000000  0.000000000
     0.000000000 11.200200000  0.000000000     0.000000000  0.089284120  0.000000000
     0.000000000  0.000000000 32.434600000     0.000000000  0.000000000  0.030831273

  length of vectors
    11.103800000 11.200200000 32.434600000     0.090059259  0.089284120  0.030831273


 FORCES acting on ions:
    Electron-Ion                     Ewald-Force                    Non-Local-Force
 -----------------------------------------------------------------------------------------------
   0.738E+00 -.269E+01 0.883E+02   -.773E+00 0.294E+01 -.967E+02   0.340E-01 -.252E+00 0.832E+01
   -.829E+02 0.764E+01 -.277E+02   0.908E+02 -.837E+01 0.303E+02   -.788E+01 0.725E+00 -.257E+01
   0.505E+02 -.304E+01 -.374E+02   -.900E+02 0.542E+01 0.663E+02   0.395E+02 -.238E+01 -.290E+02
 -----------------------------------------------------------------------------------------------
   -.317E+02 0.191E+01 0.232E+02   0.000E+00 0.000E+00 0.000E+00   0.317E+02 -.191E+01 -.232E+02
 
 
 POSITION                                       TOTAL-FORCE (eV/Angst)
 -----------------------------------------------------------------------------------
      5.35641      7.09580     16.18830        -0.000920      0.000631     -0.009540
      6.25735      6.98456     17.42778         0.002724     -0.000392      0.008810
      5.32698      7.06909     17.15931        -0.001804     -0.000239      0.000729
 -----------------------------------------------------------------------------------
    total drift:                               -0.000023      0.000028      0.000180


--------------------------------------------------------------------------------------------------------



  FREE ENERGIE OF THE ION-ELECTRON SYSTEM (eV)
  ---------------------------------------------------
  free  energy   TOTEN  =       -14.21944428 eV

  energy  without entropy=      -14.21944428  energy(sigma->0) =      -14.21944428
 
 d Force = 0.2816154E-05[ 0.724E-07, 0.556E-05]  d Energy = 0.2963709E-05-0.148E-06
 d Force = 0.2129862E-01[ 0.213E-01, 0.213E-01]  d Ewald  = 0.2129861E-01 0.194E-08


--------------------------------------------------------------------------------------------------------


    POTLOK:  cpu time      1.8262: real time      1.5818


--------------------------------------------------------------------------------------------------------




--------------------------------------------------------------------------------------------------------


  
 reached required accuracy - stopping structural energy minimisation
 writing wavefunctions
     LOOP+:  cpu time     84.2633: real time     74.1746
    4ORBIT:  cpu time      0.0000: real time      0.0000



 total charge

# of ion       s       p       d       tot
------------------------------------------
    1        0.627   0.120   0.000   0.747
    2        0.626   0.120   0.000   0.746
    3        1.566   3.601   0.000   5.168
--------------------------------------------------
tot          2.819   3.842   0.000   6.661



 magnetization (x)

# of ion       s       p       d       tot
------------------------------------------
    1       -0.000   0.000   0.000  -0.000
    2       -0.000   0.000   0.000   0.000
    3        0.000  -0.000   0.000  -0.000
--------------------------------------------------
tot         -0.000   0.000   0.000   0.000
 

 total amount of memory used by VASP MPI-rank0  1026493. kBytes
=======================================================================

   base      :      30000. kBytes
   nonl-proj :      19110. kBytes
   fftplans  :     521602. kBytes
   grid      :     424488. kBytes
   one-center:         18. kBytes
   wavefun   :      31275. kBytes
 
  
  
 General timing and accounting informations for this job:
 ========================================================
  
                  Total CPU time used (sec):     4150.223
                            User time (sec):     3639.094
                          System time (sec):      511.129
                         Elapsed time (sec):     3630.805
  
                   Maximum memory used (kb):     5814276.
                   Average memory used (kb):          N/A
  
                          Minor page faults:      7305111
                          Major page faults:          130
                 Voluntary context switches:       782764
