<?xml version="1.0" encoding="ISO-8859-1"?>
<modeling>
 <generator>
  <i name="program" type="string">vasp </i>
  <i name="version" type="string">6.3.2  </i>
  <i name="subversion" type="string">27Jun22 (build Sep  5 2022 18:50:32) complex                          parallel </i>
  <i name="platform" type="string">LinuxNV </i>
  <i name="date" type="string">2023 01 14 </i>
  <i name="time" type="string">18:22:57 </i>
 </generator>
 <incar>
  <i type="string" name="PREC">Accurate   (Precision level: Normal or Accurate, set Accurate when perform structure lattice relaxation calculation)</i>
  <i type="string" name="ALGO">All</i>
  <i type="logical" name="ADDGRID"> T  </i>
  <i type="int" name="ISPIN">     2</i>
  <i type="int" name="NELM">   150</i>
  <i type="int" name="NELMIN">     6</i>
  <i type="int" name="IBRION">     2</i>
  <i name="EDIFF">      0.00000100</i>
  <i name="EDIFFG">     -0.01000000</i>
  <i type="int" name="NSW">   100</i>
  <i type="int" name="ISIF">     2</i>
  <i name="ENCUT">    520.00000000</i>
  <i type="logical" name="LREAL"> F  </i>
  <i type="int" name="ISMEAR">    -1</i>
  <i name="SIGMA">      0.05000000</i>
  <i type="logical" name="LWAVE"> T  </i>
  <i type="logical" name="LCHARG"> T  </i>
  <i type="int" name="LORBIT">    11</i>
 </incar>
 <primitive_cell>
  <structure name="primitive_cell" >
   <crystal>
    <varray name="basis" >
     <v>      11.10380000       0.00000000       0.00000000 </v>
     <v>       0.00000000      11.20020000       0.00000000 </v>
     <v>       0.00000000       0.00000000      32.43460000 </v>
    </varray>
    <i name="volume">   4033.72191804 </i>
    <varray name="rec_basis" >
     <v>       0.09005926       0.00000000       0.00000000 </v>
     <v>       0.00000000       0.08928412       0.00000000 </v>
     <v>       0.00000000       0.00000000       0.03083127 </v>
    </varray>
   </crystal>
   <varray name="positions" >
    <v>       0.48908000       0.63249000       0.50492000 </v>
    <v>       0.56700000       0.62363000       0.53382000 </v>
    <v>       0.46959000       0.63219000       0.52673000 </v>
   </varray>
  </structure>
  <varray name="primitive_index" >
   <v type="int" >        1 </v>
   <v type="int" >        2 </v>
   <v type="int" >        3 </v>
  </varray>
 </primitive_cell>
 <kpoints>
  <generation param="Monkhorst-Pack">
   <v type="int" name="divisions">       1        1        1 </v>
   <v name="usershift">      0.00000000       0.00000000       0.00000000 </v>
   <v name="genvec1">      1.00000000       0.00000000       0.00000000 </v>
   <v name="genvec2">      0.00000000       1.00000000       0.00000000 </v>
   <v name="genvec3">      0.00000000       0.00000000       1.00000000 </v>
   <v name="shift">      0.00000000       0.00000000       0.00000000 </v>
  </generation>
  <varray name="kpointlist" >
   <v>       0.00000000       0.00000000       0.00000000 </v>
  </varray>
  <varray name="weights" >
   <v>       1.00000000 </v>
  </varray>
 </kpoints>
 <parameters>
  <separator name="general" >
   <i type="string" name="SYSTEM">unknown system</i>
   <i type="logical" name="LCOMPAT"> F  </i>
  </separator>
  <separator name="electronic" >
   <i type="string" name="PREC">accura</i>
   <i name="ENMAX">    520.00000000</i>
   <i name="ENAUG">    605.39200000</i>
   <i name="EDIFF">      0.00000100</i>
   <i type="int" name="IALGO">    58</i>
   <i type="int" name="IWAVPR">    11</i>
   <i type="int" name="NBANDS">    12</i>
   <i type="int" name="NBANDSLOW">    -1</i>
   <i type="int" name="NBANDSHIGH">    -1</i>
   <i name="NELECT">      8.00000000</i>
   <i type="int" name="TURBO">     0</i>
   <i type="int" name="IRESTART">     0</i>
   <i type="int" name="NREBOOT">     0</i>
   <i type="int" name="NMIN">     0</i>
   <i name="EREF">      0.00000000</i>
   <separator name="electronic smearing" >
    <i type="int" name="ISMEAR">    -1</i>
    <i name="SIGMA">      0.05000000</i>
    <i name="KSPACING">      0.50000000</i>
    <i type="logical" name="KGAMMA"> T  </i>
    <i type="logical" name="KBLOWUP"> T  </i>
   </separator>
   <separator name="electronic projectors" >
    <i type="logical" name="LREAL"> F  </i>
    <v name="ROPT">      0.00000000      0.00000000</v>
    <i type="int" name="LMAXPAW">  -100</i>
    <i type="int" name="LMAXMIX">     2</i>
    <i type="logical" name="NLSPLINE"> F  </i>
   </separator>
   <separator name="electronic startup" >
    <i type="int" name="ISTART">     0</i>
    <i type="int" name="ICHARG">     2</i>
    <i type="int" name="INIWAV">     1</i>
   </separator>
   <separator name="electronic spin" >
    <i type="int" name="ISPIN">     2</i>
    <i type="logical" name="LNONCOLLINEAR"> F  </i>
    <v name="MAGMOM">      1.00000000      1.00000000      1.00000000</v>
    <i name="NUPDOWN">     -1.00000000</i>
    <i type="logical" name="LSORBIT"> F  </i>
    <v name="SAXIS">      0.00000000      0.00000000      1.00000000</v>
    <i type="logical" name="LSPIRAL"> F  </i>
    <v name="QSPIRAL">      0.00000000      0.00000000      0.00000000</v>
    <i type="logical" name="LZEROZ"> F  </i>
   </separator>
   <separator name="electronic exchange-correlation" >
    <i type="logical" name="LASPH"> F  </i>
    <i type="logical" name="LMETAGGA"> F  </i>
   </separator>
   <separator name="electronic convergence" >
    <i type="int" name="NELM">   150</i>
    <i type="int" name="NELMDL">    -5</i>
    <i type="int" name="NELMIN">     6</i>
    <i name="ENINI">    520.00000000</i>
    <separator name="electronic convergence detail" >
     <i type="logical" name="LDIAG"> T  </i>
     <i type="logical" name="LSUBROT"> F  </i>
     <i name="WEIMIN">      0.00100000</i>
     <i name="EBREAK">      0.00000002</i>
     <i name="DEPER">      0.30000000</i>
     <i type="int" name="NRMM">     4</i>
     <i name="TIME">      0.40000000</i>
    </separator>
   </separator>
   <separator name="electronic mixer" >
    <i name="AMIX">      0.40000000</i>
    <i name="BMIX">      1.00000000</i>
    <i name="AMIN">      0.10000000</i>
    <i name="AMIX_MAG">      1.60000000</i>
    <i name="BMIX_MAG">      1.00000000</i>
    <separator name="electronic mixer details" >
     <i type="int" name="IMIX">     4</i>
     <i type="logical" name="MIXFIRST"> F  </i>
     <i type="int" name="MAXMIX">   -45</i>
     <i name="WC">    100.00000000</i>
     <i type="int" name="INIMIX">     1</i>
     <i type="int" name="MIXPRE">     1</i>
     <i type="int" name="MREMOVE">     5</i>
    </separator>
   </separator>
   <separator name="electronic dipolcorrection" >
    <i type="logical" name="LDIPOL"> F  </i>
    <i type="logical" name="LMONO"> F  </i>
    <i type="int" name="IDIPOL">     0</i>
    <i name="EPSILON">      1.00000000</i>
    <v name="DIPOL">   -100.00000000   -100.00000000   -100.00000000</v>
    <i name="EFIELD">      0.00000000</i>
   </separator>
  </separator>
  <separator name="grids" >
   <i type="int" name="NGX">    84</i>
   <i type="int" name="NGY">    84</i>
   <i type="int" name="NGZ">   250</i>
   <i type="int" name="NGXF">   168</i>
   <i type="int" name="NGYF">   168</i>
   <i type="int" name="NGZF">   500</i>
   <i type="logical" name="ADDGRID"> T  </i>
  </separator>
  <separator name="ionic" >
   <i type="int" name="NSW">   100</i>
   <i type="int" name="IBRION">     2</i>
   <i type="int" name="MDALGO">     0</i>
   <i type="int" name="ISIF">     2</i>
   <i name="PSTRESS">      0.00000000</i>
   <i name="EDIFFG">     -0.01000000</i>
   <i type="int" name="NFREE">     1</i>
   <i name="POTIM">      0.50000000</i>
   <i name="SMASS">     -3.00000000</i>
   <i name="SCALEE">      1.00000000</i>
  </separator>
  <separator name="ionic md" >
   <i name="TEBEG">      0.00010000</i>
   <i name="TEEND">      0.00010000</i>
   <i type="int" name="NBLOCK">     1</i>
   <i type="int" name="KBLOCK">   100</i>
   <i type="int" name="NPACO">   256</i>
   <i name="APACO">     10.00000000</i>
  </separator>
  <separator name="symmetry" >
   <i type="int" name="ISYM">     2</i>
   <i name="SYMPREC">      0.00001000</i>
  </separator>
  <separator name="dos" >
   <i type="int" name="LORBIT">    11</i>
   <v name="RWIGS">     -1.00000000     -1.00000000</v>
   <i type="int" name="NEDOS">   301</i>
   <i name="EMIN">     10.00000000</i>
   <i name="EMAX">    -10.00000000</i>
   <i name="EFERMI">      0.00000000</i>
  </separator>
  <separator name="writing" >
   <i type="int" name="NWRITE">     2</i>
   <i type="logical" name="LWAVE"> T  </i>
   <i type="logical" name="LDOWNSAMPLE"> F  </i>
   <i type="logical" name="LCHARG"> T  </i>
   <i type="logical" name="LPARD"> F  </i>
   <i type="logical" name="LVTOT"> F  </i>
   <i type="logical" name="LVHAR"> F  </i>
   <i type="logical" name="LELF"> F  </i>
   <i type="logical" name="LOPTICS"> F  </i>
   <v name="STM">      0.00000000      0.00000000      0.00000000      0.00000000      0.00000000      0.00000000      0.00000000</v>
  </separator>
  <separator name="performance" >
   <i type="int" name="NPAR">     4</i>
   <i type="int" name="NSIM">     4</i>
   <i type="int" name="NBLK">    -1</i>
   <i type="logical" name="LPLANE"> T  </i>
   <i type="logical" name="LSCALAPACK"> F  </i>
   <i type="logical" name="LSCAAWARE"> F  </i>
   <i type="logical" name="LSCALU"> F  </i>
   <i type="logical" name="LASYNC"> F  </i>
   <i type="logical" name="LORBITALREAL"> F  </i>
  </separator>
  <separator name="miscellaneous" >
   <i type="int" name="IDIOT">     3</i>
   <i type="int" name="PHON_NSTRUCT">    -1</i>
   <i type="logical" name="LMUSIC"> F  </i>
   <v name="POMASS">      1.00000000     16.00000000</v>
   <v name="DARWINR">      0.00000000      0.00000000</v>
   <v name="DARWINV">      1.00000000      1.00000000</v>
   <i type="logical" name="LCORR"> T  </i>
  </separator>
  <i type="logical" name="GGA_COMPAT"> T  </i>
  <i type="logical" name="LBERRY"> F  </i>
  <i type="int" name="ICORELEVEL">     0</i>
  <i type="logical" name="LDAU"> F  </i>
  <i type="int" name="I_CONSTRAINED_M">     0</i>
  <separator name="electronic exchange-correlation" >
   <i type="string" name="GGA">--</i>
   <i type="int" name="VOSKOWN">     0</i>
   <i type="logical" name="LHFCALC"> F  </i>
   <i type="string" name="PRECFOCK"></i>
   <i type="logical" name="LSYMGRAD"> F  </i>
   <i type="logical" name="LHFONE"> F  </i>
   <i type="logical" name="LRHFCALC"> F  </i>
   <i type="logical" name="LTHOMAS"> F  </i>
   <i type="logical" name="LMODELHF"> F  </i>
   <i type="logical" name="LFOCKACE"> F  </i>
   <i name="ENCUT4O">     -1.00000000</i>
   <i type="int" name="EXXOEP">     0</i>
   <i type="int" name="FOURORBIT">     0</i>
   <i name="AEXX">      0.00000000</i>
   <i name="HFALPHA">      0.00000000</i>
   <i name="MCALPHA">      0.00000000</i>
   <i name="ALDAX">      1.00000000</i>
   <i name="AGGAX">      1.00000000</i>
   <i name="ALDAC">      1.00000000</i>
   <i name="AGGAC">      1.00000000</i>
   <i type="int" name="NKREDX">     1</i>
   <i type="int" name="NKREDY">     1</i>
   <i type="int" name="NKREDZ">     1</i>
   <i type="logical" name="SHIFTRED"> F  </i>
   <i type="logical" name="ODDONLY"> F  </i>
   <i type="logical" name="EVENONLY"> F  </i>
   <i type="int" name="LMAXFOCK">     0</i>
   <i type="int" name="NMAXFOCKAE">     0</i>
   <i type="logical" name="LFOCKAEDFT"> F  </i>
   <i name="HFSCREEN">      0.00000000</i>
   <i name="HFSCREENC">      0.00000000</i>
   <i type="int" name="NBANDSGWLOW">     0</i>
  </separator>
  <separator name="vdW DFT" >
   <i type="logical" name="LUSE_VDW"> F  </i>
   <i name="Zab_VDW">     -0.84910000</i>
   <i name="PARAM1">      0.12340000</i>
   <i name="PARAM2">      1.00000000</i>
   <i name="PARAM3">      0.00000000</i>
  </separator>
  <separator name="model GW" >
   <i type="int" name="MODEL_GW">     0</i>
   <i name="MODEL_EPS0">    806.74438361</i>
   <i name="MODEL_ALPHA">      1.00000000</i>
  </separator>
  <separator name="linear response parameters" >
   <i type="logical" name="LEPSILON"> F  </i>
   <i type="logical" name="LRPA"> F  </i>
   <i type="logical" name="LNABLA"> F  </i>
   <i type="logical" name="LVEL"> F  </i>
   <i name="CSHIFT">      0.10000000</i>
   <i name="OMEGAMAX">     -1.00000000</i>
   <i name="DEG_THRESHOLD">      0.00200000</i>
   <i name="RTIME">     -0.10000000</i>
   <i name="WPLASMAI">      0.00000000</i>
   <v name="DFIELD">      0.00000000      0.00000000      0.00000000</v>
   <v name="WPLASMA">      0.00000000      0.00000000      0.00000000      0.00000000      0.00000000      0.00000000      0.00000000      0.00000000      0.00000000</v>
  </separator>
  <separator name="orbital magnetization" >
   <i type="logical" name="NUCIND"> F  </i>
   <v name="MAGPOS">      0.00000000      0.00000000      0.00000000</v>
   <i type="logical" name="LNICSALL"> T  </i>
   <i type="logical" name="ORBITALMAG"> F  </i>
   <i type="logical" name="LMAGBLOCH"> F  </i>
   <i type="logical" name="LCHIMAG"> F  </i>
   <i type="logical" name="LGAUGE"> T  </i>
   <i type="int" name="MAGATOM">     0</i>
   <v name="MAGDIPOL">      0.00000000      0.00000000      0.00000000</v>
   <v name="AVECCONST">      0.00000000      0.00000000      0.00000000</v>
  </separator>
  <separator name="response functions" >
   <i type="logical" name="LFINITE_TEMPERATURE"> F  </i>
   <i type="logical" name="LADDER"> F  </i>
   <i type="logical" name="LRPAFORCE"> F  </i>
   <i type="logical" name="LFXC"> F  </i>
   <i type="logical" name="LHARTREE"> T  </i>
   <i type="int" name="IBSE">     0</i>
   <v type="int" name="KPOINT">    -1     0     0     0</v>
   <i type="logical" name="LTCTC"> F  </i>
   <i type="logical" name="LTCTE"> F  </i>
   <i type="logical" name="LTETE"> F  </i>
   <i type="logical" name="LTRIPLET"> F  </i>
   <i type="logical" name="LFXCEPS"> F  </i>
   <i type="logical" name="LFXHEG"> F  </i>
   <i type="int" name="NATURALO">     2</i>
   <i type="logical" name="LHOLEGF"> F  </i>
   <i type="logical" name="L2ORDER"> F  </i>
   <i type="logical" name="LDMP1"> F  </i>
   <i type="logical" name="LMP2LT"> F  </i>
   <i type="logical" name="LSMP2LT"> F  </i>
   <i type="logical" name="LGWLF"> F  </i>
   <i name="ENCUTGW">     -2.00000000</i>
   <i name="ENCUTGWSOFT">     -2.00000000</i>
   <i name="ENCUTLF">     -1.00000000</i>
   <i type="logical" name="LESF_SPLINES"> F  </i>
   <i type="int" name="LMAXMP2">    -1</i>
   <i name="SCISSOR">      0.00000000</i>
   <i type="int" name="NOMEGA">     0</i>
   <i type="int" name="NOMEGAR">     0</i>
   <i type="int" name="NBANDSGW">    -1</i>
   <i type="int" name="NBANDSO">    -1</i>
   <i type="int" name="NBANDSV">    -1</i>
   <i type="int" name="NELMGW">     1</i>
   <i type="int" name="NELMHF">     1</i>
   <i type="int" name="DIM">     3</i>
   <i type="int" name="IESPILON">     4</i>
   <i type="int" name="ANTIRES">     0</i>
   <i name="OMEGAMAX">    -30.00000000</i>
   <i name="OMEGAMIN">    -30.00000000</i>
   <i name="OMEGATL">   -200.00000000</i>
   <i type="int" name="OMEGAGRID">     0</i>
   <i name="CSHIFT">     -0.10000000</i>
   <i type="logical" name="LSELFENERGY"> F  </i>
   <i type="logical" name="LSPECTRAL"> F  </i>
   <i type="logical" name="LSPECTRALGW"> F  </i>
   <i type="logical" name="LSINGLES"> F  </i>
   <i type="logical" name="LFERMIGW"> F  </i>
   <i type="logical" name="ODDONLYGW"> F  </i>
   <i type="logical" name="EVENONLYGW"> F  </i>
   <i type="int" name="NKREDLFX">     1</i>
   <i type="int" name="NKREDLFY">     1</i>
   <i type="int" name="NKREDLFZ">     1</i>
   <i type="int" name="MAXMEM">  2800</i>
   <i type="int" name="TELESCOPE">     0</i>
   <i type="int" name="NTAUPAR">    -1</i>
   <i type="int" name="NOMEGAPAR">    -1</i>
   <i name="DAMP_NEWTON">      0.80000001</i>
   <i name="LAMBDA">      1.00000000</i>
  </separator>
  <separator name="External order field" >
   <i name="OFIELD_KAPPA">      0.00000000</i>
   <v name="OFIELD_K">      0.00000000      0.00000000      0.00000000</v>
   <i name="OFIELD_Q6_NEAR">      0.00000000</i>
   <i name="OFIELD_Q6_FAR">      0.00000000</i>
   <i name="OFIELD_A">      0.00000000</i>
  </separator>
  <separator name="optional k-points parameters" >
   <i type="int" name="KPOINTS_OPT_MODE">     1</i>
   <i type="logical" name="LKPOINTS_OPT"> F  </i>
  </separator>
 </parameters>
 <atominfo>
  <atoms>       3 </atoms>
  <types>       2 </types>
  <array name="atoms" >
   <dimension dim="1">ion</dimension>
   <field type="string">element</field>
   <field type="int">atomtype</field>
   <set>
    <rc><c>H </c><c>   1</c></rc>
    <rc><c>H </c><c>   1</c></rc>
    <rc><c>O </c><c>   2</c></rc>
   </set>
  </array>
  <array name="atomtypes" >
   <dimension dim="1">type</dimension>
   <field type="int">atomspertype</field>
   <field type="string">element</field>
   <field>mass</field>
   <field>valence</field>
   <field type="string">pseudopotential</field>
   <set>
    <rc><c>   2</c><c>H </c><c>      1.00000000</c><c>      1.00000000</c><c>  PAW_PBE H 15Jun2001                   </c></rc>
    <rc><c>   1</c><c>O </c><c>     16.00000000</c><c>      6.00000000</c><c>  PAW_PBE O 08Apr2002                   </c></rc>
   </set>
  </array>
 </atominfo>
 <structure name="initialpos" >
  <crystal>
   <varray name="basis" >
    <v>      11.10380000       0.00000000       0.00000000 </v>
    <v>       0.00000000      11.20020000       0.00000000 </v>
    <v>       0.00000000       0.00000000      32.43460000 </v>
   </varray>
   <i name="volume">   4033.72191804 </i>
   <varray name="rec_basis" >
    <v>       0.09005926       0.00000000       0.00000000 </v>
    <v>       0.00000000       0.08928412       0.00000000 </v>
    <v>       0.00000000       0.00000000       0.03083127 </v>
   </varray>
  </crystal>
  <varray name="positions" >
   <v>       0.48908000       0.63249000       0.50492000 </v>
   <v>       0.56700000       0.62363000       0.53382000 </v>
   <v>       0.46959000       0.63219000       0.52673000 </v>
  </varray>
 </structure>
 <calculation>
  <scstep>
   <time name="total">    2.10    1.82</time>
   <energy>
    <i name="alphaZ">      0.05559414 </i>
    <i name="ewald">    170.67061614 </i>
    <i name="hartreedc">   -516.81784320 </i>
    <i name="XCdc">     33.30807712 </i>
    <i name="pawpsdc">    349.99468356 </i>
    <i name="pawaedc">   -351.80531939 </i>
    <i name="eentropy">     -0.10885174 </i>
    <i name="bandstr">    -66.26513500 </i>
    <i name="atom">    457.33192828 </i>
    <i name="e_fr_energy">     76.36374991 </i>
    <i name="e_wo_entrp">     76.47260165 </i>
    <i name="e_0_energy">     76.41817578 </i>
   </energy>
  </scstep>
  <scstep>
   <time name="total">    0.07    0.07</time>
   <energy>
    <i name="e_fr_energy">      6.70717575 </i>
    <i name="e_wo_entrp">      6.70717575 </i>
    <i name="e_0_energy">      6.70717575 </i>
   </energy>
  </scstep>
  <scstep>
   <time name="total">    0.06    0.06</time>
   <energy>
    <i name="e_fr_energy">     -9.37245485 </i>
    <i name="e_wo_entrp">     -9.37245485 </i>
    <i name="e_0_energy">     -9.37245485 </i>
   </energy>
  </scstep>
  <scstep>
   <time name="total">    0.05    0.05</time>
   <energy>
    <i name="e_fr_energy">    -10.10542410 </i>
    <i name="e_wo_entrp">    -10.10542410 </i>
    <i name="e_0_energy">    -10.10542410 </i>
   </energy>
  </scstep>
  <scstep>
   <time name="total">    1.64    1.45</time>
   <energy>
    <i name="e_fr_energy">    -10.11137722 </i>
    <i name="e_wo_entrp">    -10.11137722 </i>
    <i name="e_0_energy">    -10.11137722 </i>
   </energy>
  </scstep>
  <scstep>
   <time name="total">    6.75    5.97</time>
   <energy>
    <i name="e_fr_energy">     -5.01258138 </i>
    <i name="e_wo_entrp">     -5.01258138 </i>
    <i name="e_0_energy">     -5.01258138 </i>
   </energy>
  </scstep>
  <scstep>
   <time name="total">    6.77    5.94</time>
   <energy>
    <i name="e_fr_energy">     -9.78239433 </i>
    <i name="e_wo_entrp">     -9.78239433 </i>
    <i name="e_0_energy">     -9.78239433 </i>
   </energy>
  </scstep>
  <scstep>
   <time name="total">    6.80    5.91</time>
   <energy>
    <i name="e_fr_energy">    -10.47191866 </i>
    <i name="e_wo_entrp">    -10.47191866 </i>
    <i name="e_0_energy">    -10.47191866 </i>
   </energy>
  </scstep>
  <scstep>
   <time name="total">    6.68    5.90</time>
   <energy>
    <i name="e_fr_energy">    -10.81758529 </i>
    <i name="e_wo_entrp">    -10.81758529 </i>
    <i name="e_0_energy">    -10.81758529 </i>
   </energy>
  </scstep>
  <scstep>
   <time name="total">    6.70    5.93</time>
   <energy>
    <i name="e_fr_energy">    -10.95045681 </i>
    <i name="e_wo_entrp">    -10.95045681 </i>
    <i name="e_0_energy">    -10.95045681 </i>
   </energy>
  </scstep>
  <scstep>
   <time name="total">    6.83    5.93</time>
   <energy>
    <i name="e_fr_energy">    -10.99194459 </i>
    <i name="e_wo_entrp">    -10.99194459 </i>
    <i name="e_0_energy">    -10.99194459 </i>
   </energy>
  </scstep>
  <scstep>
   <time name="total">    6.75    5.90</time>
   <energy>
    <i name="e_fr_energy">    -11.00474866 </i>
    <i name="e_wo_entrp">    -11.00474866 </i>
    <i name="e_0_energy">    -11.00474866 </i>
   </energy>
  </scstep>
  <scstep>
   <time name="total">    6.75    5.91</time>
   <energy>
    <i name="e_fr_energy">    -11.00899627 </i>
    <i name="e_wo_entrp">    -11.00899627 </i>
    <i name="e_0_energy">    -11.00899627 </i>
   </energy>
  </scstep>
  <scstep>
   <time name="total">    6.75    5.91</time>
   <energy>
    <i name="e_fr_energy">    -11.01045182 </i>
    <i name="e_wo_entrp">    -11.01045182 </i>
    <i name="e_0_energy">    -11.01045182 </i>
   </energy>
  </scstep>
  <scstep>
   <time name="total">    6.73    5.90</time>
   <energy>
    <i name="e_fr_energy">    -11.01095331 </i>
    <i name="e_wo_entrp">    -11.01095331 </i>
    <i name="e_0_energy">    -11.01095331 </i>
   </energy>
  </scstep>
  <scstep>
   <time name="total">    6.79    5.93</time>
   <energy>
    <i name="e_fr_energy">    -11.01112189 </i>
    <i name="e_wo_entrp">    -11.01112189 </i>
    <i name="e_0_energy">    -11.01112189 </i>
   </energy>
  </scstep>
  <scstep>
   <time name="total">    6.70    5.93</time>
   <energy>
    <i name="e_fr_energy">    -11.01117976 </i>
    <i name="e_wo_entrp">    -11.01117976 </i>
    <i name="e_0_energy">    -11.01117976 </i>
   </energy>
  </scstep>
  <scstep>
   <time name="total">    6.80    5.94</time>
   <energy>
    <i name="e_fr_energy">    -11.01119865 </i>
    <i name="e_wo_entrp">    -11.01119865 </i>
    <i name="e_0_energy">    -11.01119865 </i>
   </energy>
  </scstep>
  <scstep>
   <time name="total">    6.81    5.92</time>
   <energy>
    <i name="e_fr_energy">    -11.01120478 </i>
    <i name="e_wo_entrp">    -11.01120478 </i>
    <i name="e_0_energy">    -11.01120478 </i>
   </energy>
  </scstep>
  <scstep>
   <time name="total">    6.75    5.92</time>
   <energy>
    <i name="e_fr_energy">    -11.01120666 </i>
    <i name="e_wo_entrp">    -11.01120666 </i>
    <i name="e_0_energy">    -11.01120666 </i>
   </energy>
  </scstep>
  <scstep>
   <time name="total">    6.72    5.89</time>
   <energy>
    <i name="alphaZ">      0.05559414 </i>
    <i name="ewald">    170.67061614 </i>
    <i name="hartreedc">   -557.28401221 </i>
    <i name="XCdc">     34.65780730 </i>
    <i name="pawpsdc">    611.43873667 </i>
    <i name="pawaedc">   -613.68191685 </i>
    <i name="eentropy">     -0.00000000 </i>
    <i name="bandstr">   -114.19996069 </i>
    <i name="atom">    457.33192828 </i>
    <i name="e_fr_energy">    -11.01120722 </i>
    <i name="e_wo_entrp">    -11.01120722 </i>
    <i name="e_0_energy">    -11.01120722 </i>
   </energy>
  </scstep>
  <structure>
   <crystal>
    <varray name="basis" >
     <v>      11.10380000       0.00000000       0.00000000 </v>
     <v>       0.00000000      11.20020000       0.00000000 </v>
     <v>       0.00000000       0.00000000      32.43460000 </v>
    </varray>
    <i name="volume">   4033.72191804 </i>
    <varray name="rec_basis" >
     <v>       0.09005926       0.00000000       0.00000000 </v>
     <v>       0.00000000       0.08928412       0.00000000 </v>
     <v>       0.00000000       0.00000000       0.03083127 </v>
    </varray>
   </crystal>
   <varray name="positions" >
    <v>       0.48908000       0.63249000       0.50492000 </v>
    <v>       0.56700000       0.62363000       0.53382000 </v>
    <v>       0.46959000       0.63219000       0.52673000 </v>
   </varray>
  </structure>
  <varray name="forces" >
   <v>       6.67329488       0.34245459     -29.78765267 </v>
   <v>      -3.80650744       0.28951019       0.79336688 </v>
   <v>      -2.86678744      -0.63196478      28.99428579 </v>
  </varray>
  <varray name="stress" >
   <v>      -1.09857398       0.15377210      -2.22281404 </v>
   <v>       0.15377210      -0.04187145      -0.06985690 </v>
   <v>      -2.22281404      -0.06985690       8.41161661 </v>
  </varray>
  <energy>
   <i name="e_fr_energy">    -11.01120722 </i>
   <i name="e_wo_entrp">    -11.01120722 </i>
   <i name="e_0_energy">    -11.01120722 </i>
  </energy>
  <time name="totalsc">  176.27  155.79</time>
 </calculation>
 <calculation>
  <scstep>
   <time name="total">    6.99    6.01</time>
   <energy>
    <i name="alphaZ">      0.05559414 </i>
    <i name="ewald">     49.02440009 </i>
    <i name="hartreedc">    -33.01838564 </i>
    <i name="XCdc">      7.14532914 </i>
    <i name="pawpsdc">      7.12346272 </i>
    <i name="pawaedc">     -7.12829317 </i>
    <i name="eentropy">     -0.00006994 </i>
    <i name="bandstr">   -101.18518184 </i>
    <i name="atom">    457.33192828 </i>
    <i name="e_fr_energy">    379.24726885 </i>
    <i name="e_wo_entrp">    379.24733879 </i>
    <i name="e_0_energy">    379.24730382 </i>
   </energy>
  </scstep>
  <scstep>
   <time name="total">    6.78    5.96</time>
   <energy>
    <i name="e_fr_energy">    255.09811083 </i>
    <i name="e_wo_entrp">    255.09811083 </i>
    <i name="e_0_energy">    255.09811083 </i>
   </energy>
  </scstep>
  <scstep>
   <time name="total">    6.93    5.95</time>
   <energy>
    <i name="e_fr_energy">    123.23048031 </i>
    <i name="e_wo_entrp">    123.23048031 </i>
    <i name="e_0_energy">    123.23048031 </i>
   </energy>
  </scstep>
  <scstep>
   <time name="total">    6.66    5.90</time>
   <energy>
    <i name="e_fr_energy">     76.70913004 </i>
    <i name="e_wo_entrp">     76.70913004 </i>
    <i name="e_0_energy">     76.70913004 </i>
   </energy>
  </scstep>
  <scstep>
   <time name="total">    6.88    5.92</time>
   <energy>
    <i name="e_fr_energy">     35.35058084 </i>
    <i name="e_wo_entrp">     35.35058084 </i>
    <i name="e_0_energy">     35.35058084 </i>
   </energy>
  </scstep>
  <scstep>
   <time name="total">    7.02    5.93</time>
   <energy>
    <i name="e_fr_energy">     13.34640101 </i>
    <i name="e_wo_entrp">     13.34640426 </i>
    <i name="e_0_energy">     13.34640263 </i>
   </energy>
  </scstep>
  <scstep>
   <time name="total">    6.91    5.93</time>
   <energy>
    <i name="e_fr_energy">     16.07632440 </i>
    <i name="e_wo_entrp">     16.07632660 </i>
    <i name="e_0_energy">     16.07632550 </i>
   </energy>
  </scstep>
  <scstep>
   <time name="total">    6.69    5.89</time>
   <energy>
    <i name="e_fr_energy">      0.85042710 </i>
    <i name="e_wo_entrp">      0.85043020 </i>
    <i name="e_0_energy">      0.85042865 </i>
   </energy>
  </scstep>
  <scstep>
   <time name="total">    6.80    5.93</time>
   <energy>
    <i name="e_fr_energy">     -1.81956673 </i>
    <i name="e_wo_entrp">     -1.81945206 </i>
    <i name="e_0_energy">     -1.81950940 </i>
   </energy>
  </scstep>
  <scstep>
   <time name="total">    6.76    5.93</time>
   <energy>
    <i name="e_fr_energy">     -3.49212158 </i>
    <i name="e_wo_entrp">     -3.49178643 </i>
    <i name="e_0_energy">     -3.49195400 </i>
   </energy>
  </scstep>
  <scstep>
   <time name="total">    6.77    5.94</time>
   <energy>
    <i name="e_fr_energy">     -3.73319220 </i>
    <i name="e_wo_entrp">     -3.73202541 </i>
    <i name="e_0_energy">     -3.73260881 </i>
   </energy>
  </scstep>
  <scstep>
   <time name="total">    6.75    5.98</time>
   <energy>
    <i name="e_fr_energy">     -3.99266680 </i>
    <i name="e_wo_entrp">     -3.97009024 </i>
    <i name="e_0_energy">     -3.98137852 </i>
   </energy>
  </scstep>
  <scstep>
   <time name="total">    6.71    5.94</time>
   <energy>
    <i name="e_fr_energy">     -4.27548103 </i>
    <i name="e_wo_entrp">     -4.23255618 </i>
    <i name="e_0_energy">     -4.25401861 </i>
   </energy>
  </scstep>
  <scstep>
   <time name="total">    6.75    5.94</time>
   <energy>
    <i name="e_fr_energy">     -4.34213897 </i>
    <i name="e_wo_entrp">     -4.23235748 </i>
    <i name="e_0_energy">     -4.28724823 </i>
   </energy>
  </scstep>
  <scstep>
   <time name="total">    6.78    5.91</time>
   <energy>
    <i name="e_fr_energy">     -4.24541100 </i>
    <i name="e_wo_entrp">     -4.18625283 </i>
    <i name="e_0_energy">     -4.21583192 </i>
   </energy>
  </scstep>
  <scstep>
   <time name="total">    6.68    5.92</time>
   <energy>
    <i name="e_fr_energy">     -4.31253370 </i>
    <i name="e_wo_entrp">     -4.21499931 </i>
    <i name="e_0_energy">     -4.26376650 </i>
   </energy>
  </scstep>
  <scstep>
   <time name="total">    6.72    5.97</time>
   <energy>
    <i name="e_fr_energy">     -4.82006744 </i>
    <i name="e_wo_entrp">     -4.74451452 </i>
    <i name="e_0_energy">     -4.78229098 </i>
   </energy>
  </scstep>
  <scstep>
   <time name="total">    6.71    5.95</time>
   <energy>
    <i name="e_fr_energy">     -5.21672223 </i>
    <i name="e_wo_entrp">     -5.14804479 </i>
    <i name="e_0_energy">     -5.18238351 </i>
   </energy>
  </scstep>
  <scstep>
   <time name="total">    6.73    5.95</time>
   <energy>
    <i name="e_fr_energy">     -5.74629826 </i>
    <i name="e_wo_entrp">     -5.69397104 </i>
    <i name="e_0_energy">     -5.72013465 </i>
   </energy>
  </scstep>
  <scstep>
   <time name="total">    6.70    5.92</time>
   <energy>
    <i name="e_fr_energy">     -6.16465477 </i>
    <i name="e_wo_entrp">     -6.12961676 </i>
    <i name="e_0_energy">     -6.14713577 </i>
   </energy>
  </scstep>
  <scstep>
   <time name="total">    6.66    5.90</time>
   <energy>
    <i name="e_fr_energy">     -6.33457983 </i>
    <i name="e_wo_entrp">     -6.32288506 </i>
    <i name="e_0_energy">     -6.32873244 </i>
   </energy>
  </scstep>
  <scstep>
   <time name="total">    6.86    5.91</time>
   <energy>
    <i name="e_fr_energy">     -6.44034609 </i>
    <i name="e_wo_entrp">     -6.43764090 </i>
    <i name="e_0_energy">     -6.43899350 </i>
   </energy>
  </scstep>
  <scstep>
   <time name="total">    6.75    5.97</time>
   <energy>
    <i name="e_fr_energy">     -6.46180643 </i>
    <i name="e_wo_entrp">     -6.46135389 </i>
    <i name="e_0_energy">     -6.46158016 </i>
   </energy>
  </scstep>
  <scstep>
   <time name="total">    6.91    5.91</time>
   <energy>
    <i name="e_fr_energy">     -6.46919998 </i>
    <i name="e_wo_entrp">     -6.46906431 </i>
    <i name="e_0_energy">     -6.46913215 </i>
   </energy>
  </scstep>
  <scstep>
   <time name="total">    6.77    5.90</time>
   <energy>
    <i name="e_fr_energy">     -6.47153668 </i>
    <i name="e_wo_entrp">     -6.47148731 </i>
    <i name="e_0_energy">     -6.47151199 </i>
   </energy>
  </scstep>
  <scstep>
   <time name="total">    6.71    5.91</time>
   <energy>
    <i name="e_fr_energy">     -6.47297499 </i>
    <i name="e_wo_entrp">     -6.47293025 </i>
    <i name="e_0_energy">     -6.47295262 </i>
   </energy>
  </scstep>
  <scstep>
   <time name="total">    6.77    5.91</time>
   <energy>
    <i name="e_fr_energy">     -6.47360426 </i>
    <i name="e_wo_entrp">     -6.47354454 </i>
    <i name="e_0_energy">     -6.47357440 </i>
   </energy>
  </scstep>
  <scstep>
   <time name="total">    6.73    5.91</time>
   <energy>
    <i name="e_fr_energy">     -6.47404237 </i>
    <i name="e_wo_entrp">     -6.47396047 </i>
    <i name="e_0_energy">     -6.47400142 </i>
   </energy>
  </scstep>
  <scstep>
   <time name="total">    6.86    5.94</time>
   <energy>
    <i name="e_fr_energy">     -6.47422204 </i>
    <i name="e_wo_entrp">     -6.47411837 </i>
    <i name="e_0_energy">     -6.47417020 </i>
   </energy>
  </scstep>
  <scstep>
   <time name="total">    6.73    5.92</time>
   <energy>
    <i name="e_fr_energy">     -6.47429158 </i>
    <i name="e_wo_entrp">     -6.47416902 </i>
    <i name="e_0_energy">     -6.47423030 </i>
   </energy>
  </scstep>
  <scstep>
   <time name="total">    6.73    5.92</time>
   <energy>
    <i name="e_fr_energy">     -6.47432369 </i>
    <i name="e_wo_entrp">     -6.47419214 </i>
    <i name="e_0_energy">     -6.47425791 </i>
   </energy>
  </scstep>
  <scstep>
   <time name="total">    6.70    5.93</time>
   <energy>
    <i name="e_fr_energy">     -6.47433685 </i>
    <i name="e_wo_entrp">     -6.47420482 </i>
    <i name="e_0_energy">     -6.47427083 </i>
   </energy>
  </scstep>
  <scstep>
   <time name="total">    6.79    5.96</time>
   <energy>
    <i name="e_fr_energy">     -6.47434333 </i>
    <i name="e_wo_entrp">     -6.47421605 </i>
    <i name="e_0_energy">     -6.47427969 </i>
   </energy>
  </scstep>
  <scstep>
   <time name="total">    6.71    5.95</time>
   <energy>
    <i name="e_fr_energy">     -6.47434948 </i>
    <i name="e_wo_entrp">     -6.47422966 </i>
    <i name="e_0_energy">     -6.47428957 </i>
   </energy>
  </scstep>
  <scstep>
   <time name="total">    6.77    5.99</time>
   <energy>
    <i name="e_fr_energy">     -6.47435581 </i>
    <i name="e_wo_entrp">     -6.47423948 </i>
    <i name="e_0_energy">     -6.47429765 </i>
   </energy>
  </scstep>
  <scstep>
   <time name="total">    6.73    5.98</time>
   <energy>
    <i name="e_fr_energy">     -6.47435964 </i>
    <i name="e_wo_entrp">     -6.47424428 </i>
    <i name="e_0_energy">     -6.47430196 </i>
   </energy>
  </scstep>
  <scstep>
   <time name="total">    6.97    6.00</time>
   <energy>
    <i name="e_fr_energy">     -6.47436360 </i>
    <i name="e_wo_entrp">     -6.47424615 </i>
    <i name="e_0_energy">     -6.47430487 </i>
   </energy>
  </scstep>
  <scstep>
   <time name="total">    6.69    5.94</time>
   <energy>
    <i name="e_fr_energy">     -6.47436713 </i>
    <i name="e_wo_entrp">     -6.47424583 </i>
    <i name="e_0_energy">     -6.47430648 </i>
   </energy>
  </scstep>
  <scstep>
   <time name="total">    6.85    5.97</time>
   <energy>
    <i name="e_fr_energy">     -6.47437048 </i>
    <i name="e_wo_entrp">     -6.47424285 </i>
    <i name="e_0_energy">     -6.47430667 </i>
   </energy>
  </scstep>
  <scstep>
   <time name="total">    6.79    5.98</time>
   <energy>
    <i name="e_fr_energy">     -6.47437532 </i>
    <i name="e_wo_entrp">     -6.47424332 </i>
    <i name="e_0_energy">     -6.47430932 </i>
   </energy>
  </scstep>
  <scstep>
   <time name="total">    6.74    5.96</time>
   <energy>
    <i name="e_fr_energy">     -6.47438047 </i>
    <i name="e_wo_entrp">     -6.47424470 </i>
    <i name="e_0_energy">     -6.47431259 </i>
   </energy>
  </scstep>
  <scstep>
   <time name="total">    6.79    5.99</time>
   <energy>
    <i name="e_fr_energy">     -6.47439413 </i>
    <i name="e_wo_entrp">     -6.47426025 </i>
    <i name="e_0_energy">     -6.47432719 </i>
   </energy>
  </scstep>
  <scstep>
   <time name="total">    6.74    5.97</time>
   <energy>
    <i name="e_fr_energy">     -6.47441800 </i>
    <i name="e_wo_entrp">     -6.47429087 </i>
    <i name="e_0_energy">     -6.47435444 </i>
   </energy>
  </scstep>
  <scstep>
   <time name="total">    6.80    5.98</time>
   <energy>
    <i name="e_fr_energy">     -6.47444404 </i>
    <i name="e_wo_entrp">     -6.47432208 </i>
    <i name="e_0_energy">     -6.47438306 </i>
   </energy>
  </scstep>
  <scstep>
   <time name="total">    6.70    5.98</time>
   <energy>
    <i name="e_fr_energy">     -6.47445353 </i>
    <i name="e_wo_entrp">     -6.47433400 </i>
    <i name="e_0_energy">     -6.47439376 </i>
   </energy>
  </scstep>
  <scstep>
   <time name="total">    6.89    5.99</time>
   <energy>
    <i name="e_fr_energy">     -6.47445734 </i>
    <i name="e_wo_entrp">     -6.47433797 </i>
    <i name="e_0_energy">     -6.47439765 </i>
   </energy>
  </scstep>
  <scstep>
   <time name="total">   16.98   15.02</time>
   <energy>
    <i name="e_fr_energy">     -6.47445991 </i>
    <i name="e_wo_entrp">     -6.47433606 </i>
    <i name="e_0_energy">     -6.47439798 </i>
   </energy>
  </scstep>
  <scstep>
   <time name="total">    6.90    5.97</time>
   <energy>
    <i name="e_fr_energy">     -6.47446797 </i>
    <i name="e_wo_entrp">     -6.47434051 </i>
    <i name="e_0_energy">     -6.47440424 </i>
   </energy>
  </scstep>
  <scstep>
   <time name="total">    6.78    5.99</time>
   <energy>
    <i name="e_fr_energy">     -6.47447685 </i>
    <i name="e_wo_entrp">     -6.47434837 </i>
    <i name="e_0_energy">     -6.47441261 </i>
   </energy>
  </scstep>
  <scstep>
   <time name="total">    6.90    6.00</time>
   <energy>
    <i name="e_fr_energy">     -6.47449540 </i>
    <i name="e_wo_entrp">     -6.47438341 </i>
    <i name="e_0_energy">     -6.47443941 </i>
   </energy>
  </scstep>
  <scstep>
   <time name="total">    7.47    6.02</time>
   <energy>
    <i name="e_fr_energy">     -6.47454415 </i>
    <i name="e_wo_entrp">     -6.47443266 </i>
    <i name="e_0_energy">     -6.47448840 </i>
   </energy>
  </scstep>
  <scstep>
   <time name="total">    6.78    5.98</time>
   <energy>
    <i name="e_fr_energy">     -6.47464683 </i>
    <i name="e_wo_entrp">     -6.47453210 </i>
    <i name="e_0_energy">     -6.47458946 </i>
   </energy>
  </scstep>
  <scstep>
   <time name="total">    6.79    5.95</time>
   <energy>
    <i name="e_fr_energy">     -6.47467705 </i>
    <i name="e_wo_entrp">     -6.47455806 </i>
    <i name="e_0_energy">     -6.47461756 </i>
   </energy>
  </scstep>
  <scstep>
   <time name="total">    6.77    5.96</time>
   <energy>
    <i name="e_fr_energy">     -6.47469352 </i>
    <i name="e_wo_entrp">     -6.47456903 </i>
    <i name="e_0_energy">     -6.47463127 </i>
   </energy>
  </scstep>
  <scstep>
   <time name="total">    7.40    6.00</time>
   <energy>
    <i name="e_fr_energy">     -6.47470734 </i>
    <i name="e_wo_entrp">     -6.47458254 </i>
    <i name="e_0_energy">     -6.47464494 </i>
   </energy>
  </scstep>
  <scstep>
   <time name="total">    6.81    5.95</time>
   <energy>
    <i name="e_fr_energy">     -6.47471371 </i>
    <i name="e_wo_entrp">     -6.47459214 </i>
    <i name="e_0_energy">     -6.47465293 </i>
   </energy>
  </scstep>
  <scstep>
   <time name="total">    6.83    5.95</time>
   <energy>
    <i name="e_fr_energy">     -6.47471875 </i>
    <i name="e_wo_entrp">     -6.47460435 </i>
    <i name="e_0_energy">     -6.47466155 </i>
   </energy>
  </scstep>
  <scstep>
   <time name="total">    6.73    5.91</time>
   <energy>
    <i name="e_fr_energy">     -6.47472633 </i>
    <i name="e_wo_entrp">     -6.47462441 </i>
    <i name="e_0_energy">     -6.47467537 </i>
   </energy>
  </scstep>
  <scstep>
   <time name="total">    6.73    5.97</time>
   <energy>
    <i name="e_fr_energy">     -6.47473798 </i>
    <i name="e_wo_entrp">     -6.47465867 </i>
    <i name="e_0_energy">     -6.47469833 </i>
   </energy>
  </scstep>
  <scstep>
   <time name="total">    6.81    5.92</time>
   <energy>
    <i name="e_fr_energy">     -6.47475858 </i>
    <i name="e_wo_entrp">     -6.47471738 </i>
    <i name="e_0_energy">     -6.47473798 </i>
   </energy>
  </scstep>
  <scstep>
   <time name="total">    6.82    5.92</time>
   <energy>
    <i name="e_fr_energy">     -6.47473697 </i>
    <i name="e_wo_entrp">     -6.47471012 </i>
    <i name="e_0_energy">     -6.47472355 </i>
   </energy>
  </scstep>
  <scstep>
   <time name="total">    6.76    5.93</time>
   <energy>
    <i name="e_fr_energy">     -6.47482820 </i>
    <i name="e_wo_entrp">     -6.47469641 </i>
    <i name="e_0_energy">     -6.47476230 </i>
   </energy>
  </scstep>
  <scstep>
   <time name="total">    6.76    5.91</time>
   <energy>
    <i name="e_fr_energy">     -6.47485633 </i>
    <i name="e_wo_entrp">     -6.47467809 </i>
    <i name="e_0_energy">     -6.47476721 </i>
   </energy>
  </scstep>
  <scstep>
   <time name="total">    6.79    5.94</time>
   <energy>
    <i name="e_fr_energy">     -6.47486266 </i>
    <i name="e_wo_entrp">     -6.47467013 </i>
    <i name="e_0_energy">     -6.47476639 </i>
   </energy>
  </scstep>
  <scstep>
   <time name="total">    6.88    5.95</time>
   <energy>
    <i name="e_fr_energy">     -6.47486752 </i>
    <i name="e_wo_entrp">     -6.47468953 </i>
    <i name="e_0_energy">     -6.47477852 </i>
   </energy>
  </scstep>
  <scstep>
   <time name="total">    6.91    5.93</time>
   <energy>
    <i name="e_fr_energy">     -6.47487233 </i>
    <i name="e_wo_entrp">     -6.47472755 </i>
    <i name="e_0_energy">     -6.47479994 </i>
   </energy>
  </scstep>
  <scstep>
   <time name="total">    6.77    5.93</time>
   <energy>
    <i name="e_fr_energy">     -6.47487703 </i>
    <i name="e_wo_entrp">     -6.47476712 </i>
    <i name="e_0_energy">     -6.47482208 </i>
   </energy>
  </scstep>
  <scstep>
   <time name="total">    6.78    5.96</time>
   <energy>
    <i name="e_fr_energy">     -6.47488189 </i>
    <i name="e_wo_entrp">     -6.47479518 </i>
    <i name="e_0_energy">     -6.47483853 </i>
   </energy>
  </scstep>
  <scstep>
   <time name="total">    6.83    5.95</time>
   <energy>
    <i name="e_fr_energy">     -6.47488666 </i>
    <i name="e_wo_entrp">     -6.47481350 </i>
    <i name="e_0_energy">     -6.47485008 </i>
   </energy>
  </scstep>
  <scstep>
   <time name="total">    6.76    5.91</time>
   <energy>
    <i name="e_fr_energy">     -6.47489264 </i>
    <i name="e_wo_entrp">     -6.47481914 </i>
    <i name="e_0_energy">     -6.47485589 </i>
   </energy>
  </scstep>
  <scstep>
   <time name="total">    6.79    5.93</time>
   <energy>
    <i name="e_fr_energy">     -6.47490115 </i>
    <i name="e_wo_entrp">     -6.47480631 </i>
    <i name="e_0_energy">     -6.47485373 </i>
   </energy>
  </scstep>
  <scstep>
   <time name="total">    6.70    5.90</time>
   <energy>
    <i name="e_fr_energy">     -6.47491711 </i>
    <i name="e_wo_entrp">     -6.47475640 </i>
    <i name="e_0_energy">     -6.47483675 </i>
   </energy>
  </scstep>
  <scstep>
   <time name="total">    6.71    5.91</time>
   <energy>
    <i name="e_fr_energy">     -6.47494307 </i>
    <i name="e_wo_entrp">     -6.47469927 </i>
    <i name="e_0_energy">     -6.47482117 </i>
   </energy>
  </scstep>
  <scstep>
   <time name="total">    6.63    5.90</time>
   <energy>
    <i name="e_fr_energy">     -6.47497450 </i>
    <i name="e_wo_entrp">     -6.47465674 </i>
    <i name="e_0_energy">     -6.47481562 </i>
   </energy>
  </scstep>
  <scstep>
   <time name="total">    6.66    5.90</time>
   <energy>
    <i name="e_fr_energy">     -6.47501113 </i>
    <i name="e_wo_entrp">     -6.47465602 </i>
    <i name="e_0_energy">     -6.47483358 </i>
   </energy>
  </scstep>
  <scstep>
   <time name="total">    6.68    5.91</time>
   <energy>
    <i name="e_fr_energy">     -6.47505442 </i>
    <i name="e_wo_entrp">     -6.47473087 </i>
    <i name="e_0_energy">     -6.47489265 </i>
   </energy>
  </scstep>
  <scstep>
   <time name="total">    6.65    5.90</time>
   <energy>
    <i name="e_fr_energy">     -6.47510746 </i>
    <i name="e_wo_entrp">     -6.47484514 </i>
    <i name="e_0_energy">     -6.47497630 </i>
   </energy>
  </scstep>
  <scstep>
   <time name="total">    6.81    5.91</time>
   <energy>
    <i name="e_fr_energy">     -6.47516416 </i>
    <i name="e_wo_entrp">     -6.47496471 </i>
    <i name="e_0_energy">     -6.47506444 </i>
   </energy>
  </scstep>
  <scstep>
   <time name="total">    6.68    5.88</time>
   <energy>
    <i name="e_fr_energy">     -6.47522601 </i>
    <i name="e_wo_entrp">     -6.47508262 </i>
    <i name="e_0_energy">     -6.47515432 </i>
   </energy>
  </scstep>
  <scstep>
   <time name="total">    6.79    5.90</time>
   <energy>
    <i name="e_fr_energy">     -6.47540811 </i>
    <i name="e_wo_entrp">     -6.47529340 </i>
    <i name="e_0_energy">     -6.47535075 </i>
   </energy>
  </scstep>
  <scstep>
   <time name="total">    6.79    5.91</time>
   <energy>
    <i name="e_fr_energy">     -6.47547865 </i>
    <i name="e_wo_entrp">     -6.47536852 </i>
    <i name="e_0_energy">     -6.47542358 </i>
   </energy>
  </scstep>
  <scstep>
   <time name="total">    6.82    5.92</time>
   <energy>
    <i name="e_fr_energy">     -6.47549469 </i>
    <i name="e_wo_entrp">     -6.47538344 </i>
    <i name="e_0_energy">     -6.47543907 </i>
   </energy>
  </scstep>
  <scstep>
   <time name="total">    6.74    5.90</time>
   <energy>
    <i name="e_fr_energy">     -6.47550378 </i>
    <i name="e_wo_entrp">     -6.47538617 </i>
    <i name="e_0_energy">     -6.47544497 </i>
   </energy>
  </scstep>
  <scstep>
   <time name="total">    6.80    5.92</time>
   <energy>
    <i name="e_fr_energy">     -6.47550834 </i>
    <i name="e_wo_entrp">     -6.47537763 </i>
    <i name="e_0_energy">     -6.47544298 </i>
   </energy>
  </scstep>
  <scstep>
   <time name="total">    6.80    5.92</time>
   <energy>
    <i name="e_fr_energy">     -6.47551535 </i>
    <i name="e_wo_entrp">     -6.47536618 </i>
    <i name="e_0_energy">     -6.47544077 </i>
   </energy>
  </scstep>
  <scstep>
   <time name="total">    6.83    5.95</time>
   <energy>
    <i name="e_fr_energy">     -6.47553039 </i>
    <i name="e_wo_entrp">     -6.47537686 </i>
    <i name="e_0_energy">     -6.47545362 </i>
   </energy>
  </scstep>
  <scstep>
   <time name="total">    6.98    5.95</time>
   <energy>
    <i name="e_fr_energy">     -6.47555132 </i>
    <i name="e_wo_entrp">     -6.47543695 </i>
    <i name="e_0_energy">     -6.47549414 </i>
   </energy>
  </scstep>
  <scstep>
   <time name="total">    6.83    5.93</time>
   <energy>
    <i name="e_fr_energy">     -6.47560395 </i>
    <i name="e_wo_entrp">     -6.47549636 </i>
    <i name="e_0_energy">     -6.47555015 </i>
   </energy>
  </scstep>
  <scstep>
   <time name="total">    6.80    5.94</time>
   <energy>
    <i name="e_fr_energy">     -6.47572556 </i>
    <i name="e_wo_entrp">     -6.47561497 </i>
    <i name="e_0_energy">     -6.47567026 </i>
   </energy>
  </scstep>
  <scstep>
   <time name="total">    6.81    5.97</time>
   <energy>
    <i name="e_fr_energy">     -6.47576799 </i>
    <i name="e_wo_entrp">     -6.47565193 </i>
    <i name="e_0_energy">     -6.47570996 </i>
   </energy>
  </scstep>
  <scstep>
   <time name="total">    6.79    5.94</time>
   <energy>
    <i name="e_fr_energy">     -6.47578523 </i>
    <i name="e_wo_entrp">     -6.47566558 </i>
    <i name="e_0_energy">     -6.47572540 </i>
   </energy>
  </scstep>
  <scstep>
   <time name="total">    6.81    5.95</time>
   <energy>
    <i name="e_fr_energy">     -6.47579184 </i>
    <i name="e_wo_entrp">     -6.47567019 </i>
    <i name="e_0_energy">     -6.47573101 </i>
   </energy>
  </scstep>
  <scstep>
   <time name="total">    6.75    5.95</time>
   <energy>
    <i name="e_fr_energy">     -6.47579604 </i>
    <i name="e_wo_entrp">     -6.47567426 </i>
    <i name="e_0_energy">     -6.47573515 </i>
   </energy>
  </scstep>
  <scstep>
   <time name="total">    7.03    5.96</time>
   <energy>
    <i name="e_fr_energy">     -6.47580278 </i>
    <i name="e_wo_entrp">     -6.47568378 </i>
    <i name="e_0_energy">     -6.47574328 </i>
   </energy>
  </scstep>
  <scstep>
   <time name="total">    6.76    5.95</time>
   <energy>
    <i name="e_fr_energy">     -6.47581172 </i>
    <i name="e_wo_entrp">     -6.47569930 </i>
    <i name="e_0_energy">     -6.47575551 </i>
   </energy>
  </scstep>
  <scstep>
   <time name="total">    6.83    5.95</time>
   <energy>
    <i name="e_fr_energy">     -6.47582895 </i>
    <i name="e_wo_entrp">     -6.47572924 </i>
    <i name="e_0_energy">     -6.47577909 </i>
   </energy>
  </scstep>
  <scstep>
   <time name="total">    6.76    5.95</time>
   <energy>
    <i name="e_fr_energy">     -6.47586013 </i>
    <i name="e_wo_entrp">     -6.47579740 </i>
    <i name="e_0_energy">     -6.47582877 </i>
   </energy>
  </scstep>
  <scstep>
   <time name="total">    6.75    5.97</time>
   <energy>
    <i name="e_fr_energy">     -6.47570997 </i>
    <i name="e_wo_entrp">     -6.47564734 </i>
    <i name="e_0_energy">     -6.47567865 </i>
   </energy>
  </scstep>
  <scstep>
   <time name="total">    6.77    5.97</time>
   <energy>
    <i name="e_fr_energy">     -6.47601684 </i>
    <i name="e_wo_entrp">     -6.47592563 </i>
    <i name="e_0_energy">     -6.47597123 </i>
   </energy>
  </scstep>
  <scstep>
   <time name="total">    6.72    5.95</time>
   <energy>
    <i name="e_fr_energy">     -6.47607663 </i>
    <i name="e_wo_entrp">     -6.47596235 </i>
    <i name="e_0_energy">     -6.47601949 </i>
   </energy>
  </scstep>
  <scstep>
   <time name="total">    6.78    5.93</time>
   <energy>
    <i name="e_fr_energy">     -6.47609856 </i>
    <i name="e_wo_entrp">     -6.47596666 </i>
    <i name="e_0_energy">     -6.47603261 </i>
   </energy>
  </scstep>
  <scstep>
   <time name="total">    7.11    5.97</time>
   <energy>
    <i name="e_fr_energy">     -6.47611029 </i>
    <i name="e_wo_entrp">     -6.47597032 </i>
    <i name="e_0_energy">     -6.47604031 </i>
   </energy>
  </scstep>
  <scstep>
   <time name="total">    6.76    5.93</time>
   <energy>
    <i name="e_fr_energy">     -6.47612136 </i>
    <i name="e_wo_entrp">     -6.47599456 </i>
    <i name="e_0_energy">     -6.47605796 </i>
   </energy>
  </scstep>
  <scstep>
   <time name="total">    7.07    5.96</time>
   <energy>
    <i name="e_fr_energy">     -6.47612766 </i>
    <i name="e_wo_entrp">     -6.47601586 </i>
    <i name="e_0_energy">     -6.47607176 </i>
   </energy>
  </scstep>
  <scstep>
   <time name="total">    6.77    5.93</time>
   <energy>
    <i name="e_fr_energy">     -6.47613236 </i>
    <i name="e_wo_entrp">     -6.47603404 </i>
    <i name="e_0_energy">     -6.47608320 </i>
   </energy>
  </scstep>
  <scstep>
   <time name="total">    6.79    5.94</time>
   <energy>
    <i name="e_fr_energy">     -6.47613905 </i>
    <i name="e_wo_entrp">     -6.47604677 </i>
    <i name="e_0_energy">     -6.47609291 </i>
   </energy>
  </scstep>
  <scstep>
   <time name="total">    6.73    5.92</time>
   <energy>
    <i name="e_fr_energy">     -6.47615053 </i>
    <i name="e_wo_entrp">     -6.47604080 </i>
    <i name="e_0_energy">     -6.47609566 </i>
   </energy>
  </scstep>
  <scstep>
   <time name="total">    6.83    5.94</time>
   <energy>
    <i name="e_fr_energy">     -6.47618218 </i>
    <i name="e_wo_entrp">     -6.47603698 </i>
    <i name="e_0_energy">     -6.47610958 </i>
   </energy>
  </scstep>
  <scstep>
   <time name="total">    6.84    5.97</time>
   <energy>
    <i name="e_fr_energy">     -6.47623171 </i>
    <i name="e_wo_entrp">     -6.47607938 </i>
    <i name="e_0_energy">     -6.47615555 </i>
   </energy>
  </scstep>
  <scstep>
   <time name="total">    6.77    5.99</time>
   <energy>
    <i name="e_fr_energy">     -6.47627090 </i>
    <i name="e_wo_entrp">     -6.47613263 </i>
    <i name="e_0_energy">     -6.47620177 </i>
   </energy>
  </scstep>
  <scstep>
   <time name="total">    6.94    6.10</time>
   <energy>
    <i name="e_fr_energy">     -6.47633470 </i>
    <i name="e_wo_entrp">     -6.47622088 </i>
    <i name="e_0_energy">     -6.47627779 </i>
   </energy>
  </scstep>
  <scstep>
   <time name="total">    6.82    5.98</time>
   <energy>
    <i name="e_fr_energy">     -6.47639882 </i>
    <i name="e_wo_entrp">     -6.47630666 </i>
    <i name="e_0_energy">     -6.47635274 </i>
   </energy>
  </scstep>
  <scstep>
   <time name="total">    6.73    5.95</time>
   <energy>
    <i name="e_fr_energy">     -6.47645800 </i>
    <i name="e_wo_entrp">     -6.47638198 </i>
    <i name="e_0_energy">     -6.47641999 </i>
   </energy>
  </scstep>
  <scstep>
   <time name="total">    6.77    5.98</time>
   <energy>
    <i name="e_fr_energy">     -6.47651182 </i>
    <i name="e_wo_entrp">     -6.47644646 </i>
    <i name="e_0_energy">     -6.47647914 </i>
   </energy>
  </scstep>
  <scstep>
   <time name="total">    6.81    6.00</time>
   <energy>
    <i name="e_fr_energy">     -6.47655565 </i>
    <i name="e_wo_entrp">     -6.47649640 </i>
    <i name="e_0_energy">     -6.47652603 </i>
   </energy>
  </scstep>
  <scstep>
   <time name="total">    6.80    5.97</time>
   <energy>
    <i name="e_fr_energy">     -6.47658941 </i>
    <i name="e_wo_entrp">     -6.47653279 </i>
    <i name="e_0_energy">     -6.47656110 </i>
   </energy>
  </scstep>
  <scstep>
   <time name="total">    6.87    5.98</time>
   <energy>
    <i name="e_fr_energy">     -6.47661824 </i>
    <i name="e_wo_entrp">     -6.47656089 </i>
    <i name="e_0_energy">     -6.47658956 </i>
   </energy>
  </scstep>
  <scstep>
   <time name="total">    6.82    5.98</time>
   <energy>
    <i name="e_fr_energy">     -6.47664811 </i>
    <i name="e_wo_entrp">     -6.47658535 </i>
    <i name="e_0_energy">     -6.47661673 </i>
   </energy>
  </scstep>
  <scstep>
   <time name="total">    6.79    5.96</time>
   <energy>
    <i name="e_fr_energy">     -6.47668612 </i>
    <i name="e_wo_entrp">     -6.47661254 </i>
    <i name="e_0_energy">     -6.47664933 </i>
   </energy>
  </scstep>
  <scstep>
   <time name="total">    6.80    5.96</time>
   <energy>
    <i name="e_fr_energy">     -6.47674466 </i>
    <i name="e_wo_entrp">     -6.47665932 </i>
    <i name="e_0_energy">     -6.47670199 </i>
   </energy>
  </scstep>
  <scstep>
   <time name="total">    6.85    5.95</time>
   <energy>
    <i name="e_fr_energy">     -6.47681402 </i>
    <i name="e_wo_entrp">     -6.47671845 </i>
    <i name="e_0_energy">     -6.47676624 </i>
   </energy>
  </scstep>
  <scstep>
   <time name="total">    6.76    5.96</time>
   <energy>
    <i name="e_fr_energy">     -6.47686988 </i>
    <i name="e_wo_entrp">     -6.47676603 </i>
    <i name="e_0_energy">     -6.47681796 </i>
   </energy>
  </scstep>
  <scstep>
   <time name="total">    6.77    5.96</time>
   <energy>
    <i name="e_fr_energy">     -6.47690584 </i>
    <i name="e_wo_entrp">     -6.47679542 </i>
    <i name="e_0_energy">     -6.47685063 </i>
   </energy>
  </scstep>
  <scstep>
   <time name="total">    6.86    5.97</time>
   <energy>
    <i name="e_fr_energy">     -6.47692781 </i>
    <i name="e_wo_entrp">     -6.47681247 </i>
    <i name="e_0_energy">     -6.47687014 </i>
   </energy>
  </scstep>
  <scstep>
   <time name="total">    6.87    5.99</time>
   <energy>
    <i name="e_fr_energy">     -6.47694189 </i>
    <i name="e_wo_entrp">     -6.47682316 </i>
    <i name="e_0_energy">     -6.47688252 </i>
   </energy>
  </scstep>
  <scstep>
   <time name="total">    6.76    5.95</time>
   <energy>
    <i name="e_fr_energy">     -6.47695222 </i>
    <i name="e_wo_entrp">     -6.47683161 </i>
    <i name="e_0_energy">     -6.47689191 </i>
   </energy>
  </scstep>
  <scstep>
   <time name="total">    6.89    6.01</time>
   <energy>
    <i name="e_fr_energy">     -6.47696047 </i>
    <i name="e_wo_entrp">     -6.47683942 </i>
    <i name="e_0_energy">     -6.47689994 </i>
   </energy>
  </scstep>
  <scstep>
   <time name="total">    6.88    6.00</time>
   <energy>
    <i name="e_fr_energy">     -6.47696680 </i>
    <i name="e_wo_entrp">     -6.47684633 </i>
    <i name="e_0_energy">     -6.47690657 </i>
   </energy>
  </scstep>
  <scstep>
   <time name="total">    6.78    5.98</time>
   <energy>
    <i name="e_fr_energy">     -6.47697162 </i>
    <i name="e_wo_entrp">     -6.47685321 </i>
    <i name="e_0_energy">     -6.47691241 </i>
   </energy>
  </scstep>
  <scstep>
   <time name="total">    6.87    5.99</time>
   <energy>
    <i name="e_fr_energy">     -6.47698354 </i>
    <i name="e_wo_entrp">     -6.47686606 </i>
    <i name="e_0_energy">     -6.47692480 </i>
   </energy>
  </scstep>
  <scstep>
   <time name="total">    6.79    5.97</time>
   <energy>
    <i name="e_fr_energy">     -6.47698599 </i>
    <i name="e_wo_entrp">     -6.47686923 </i>
    <i name="e_0_energy">     -6.47692761 </i>
   </energy>
  </scstep>
  <scstep>
   <time name="total">    6.86    6.00</time>
   <energy>
    <i name="alphaZ">      0.05559414 </i>
    <i name="ewald">     49.02440009 </i>
    <i name="hartreedc">   -446.06698779 </i>
    <i name="XCdc">     31.40380356 </i>
    <i name="pawpsdc">    373.67940493 </i>
    <i name="pawaedc">   -375.49482507 </i>
    <i name="eentropy">     -0.00011655 </i>
    <i name="bandstr">    -96.41018810 </i>
    <i name="atom">    457.33192828 </i>
    <i name="e_fr_energy">     -6.47698673 </i>
    <i name="e_wo_entrp">     -6.47687018 </i>
    <i name="e_0_energy">     -6.47692845 </i>
   </energy>
  </scstep>
  <structure>
   <crystal>
    <varray name="basis" >
     <v>      11.10380000       0.00000000       0.00000000 </v>
     <v>       0.00000000      11.20020000       0.00000000 </v>
     <v>       0.00000000       0.00000000      32.43460000 </v>
    </varray>
    <i name="volume">   4033.72191804 </i>
    <varray name="rec_basis" >
     <v>       0.09005926       0.00000000       0.00000000 </v>
     <v>       0.00000000       0.08928412       0.00000000 </v>
     <v>       0.00000000       0.00000000       0.03083127 </v>
    </varray>
   </crystal>
   <varray name="positions" >
    <v>       0.51807345       0.63396506       0.46061437 </v>
    <v>       0.55046188       0.62487701       0.53500004 </v>
    <v>       0.45713468       0.62946794       0.56985559 </v>
   </varray>
  </structure>
  <varray name="forces" >
   <v>       0.01066779      -0.00243383       0.05523177 </v>
   <v>      -3.35975050       0.16855942       3.59979602 </v>
   <v>       3.34908271      -0.16612559      -3.65502780 </v>
  </varray>
  <varray name="stress" >
   <v>      -1.39727347       0.06848329       1.49294361 </v>
   <v>       0.06848304      -0.02010133      -0.07248925 </v>
   <v>       1.49294357      -0.07248925      -1.71276071 </v>
  </varray>
  <energy>
   <i name="e_fr_energy">     -6.47698673 </i>
   <i name="e_wo_entrp">     -6.47687018 </i>
   <i name="e_0_energy">     -6.47692845 </i>
  </energy>
  <time name="totalsc">  960.34  839.77</time>
 </calculation>
 <calculation>
  <scstep>
   <time name="total">    6.84    6.01</time>
   <energy>
    <i name="alphaZ">      0.05559414 </i>
    <i name="ewald">     52.36713613 </i>
    <i name="hartreedc">   -435.80135405 </i>
    <i name="XCdc">     30.86251851 </i>
    <i name="pawpsdc">    364.76722209 </i>
    <i name="pawaedc">   -366.32805139 </i>
    <i name="eentropy">     -0.00000672 </i>
    <i name="bandstr">   -106.45053402 </i>
    <i name="atom">    457.33192828 </i>
    <i name="e_fr_energy">     -3.19554927 </i>
    <i name="e_wo_entrp">     -3.19554256 </i>
    <i name="e_0_energy">     -3.19554592 </i>
   </energy>
  </scstep>
  <scstep>
   <time name="total">    6.84    5.95</time>
   <energy>
    <i name="e_fr_energy">     -5.80649056 </i>
    <i name="e_wo_entrp">     -5.80647984 </i>
    <i name="e_0_energy">     -5.80648520 </i>
   </energy>
  </scstep>
  <scstep>
   <time name="total">    6.86    6.01</time>
   <energy>
    <i name="e_fr_energy">     -6.54494428 </i>
    <i name="e_wo_entrp">     -6.54492506 </i>
    <i name="e_0_energy">     -6.54493467 </i>
   </energy>
  </scstep>
  <scstep>
   <time name="total">    6.87    6.02</time>
   <energy>
    <i name="e_fr_energy">     -6.68483892 </i>
    <i name="e_wo_entrp">     -6.68480419 </i>
    <i name="e_0_energy">     -6.68482156 </i>
   </energy>
  </scstep>
  <scstep>
   <time name="total">    6.71    5.96</time>
   <energy>
    <i name="e_fr_energy">     -6.71853696 </i>
    <i name="e_wo_entrp">     -6.71847533 </i>
    <i name="e_0_energy">     -6.71850615 </i>
   </energy>
  </scstep>
  <scstep>
   <time name="total">    6.84    5.98</time>
   <energy>
    <i name="e_fr_energy">     -6.73153669 </i>
    <i name="e_wo_entrp">     -6.73144251 </i>
    <i name="e_0_energy">     -6.73148960 </i>
   </energy>
  </scstep>
  <scstep>
   <time name="total">    6.76    5.94</time>
   <energy>
    <i name="e_fr_energy">     -6.73657490 </i>
    <i name="e_wo_entrp">     -6.73645902 </i>
    <i name="e_0_energy">     -6.73651696 </i>
   </energy>
  </scstep>
  <scstep>
   <time name="total">    6.70    5.93</time>
   <energy>
    <i name="e_fr_energy">     -6.73822896 </i>
    <i name="e_wo_entrp">     -6.73810527 </i>
    <i name="e_0_energy">     -6.73816712 </i>
   </energy>
  </scstep>
  <scstep>
   <time name="total">    6.79    5.97</time>
   <energy>
    <i name="e_fr_energy">     -6.73863155 </i>
    <i name="e_wo_entrp">     -6.73850641 </i>
    <i name="e_0_energy">     -6.73856898 </i>
   </energy>
  </scstep>
  <scstep>
   <time name="total">    6.75    5.96</time>
   <energy>
    <i name="e_fr_energy">     -6.73873551 </i>
    <i name="e_wo_entrp">     -6.73861072 </i>
    <i name="e_0_energy">     -6.73867312 </i>
   </energy>
  </scstep>
  <scstep>
   <time name="total">    7.15    6.00</time>
   <energy>
    <i name="e_fr_energy">     -6.73877462 </i>
    <i name="e_wo_entrp">     -6.73865104 </i>
    <i name="e_0_energy">     -6.73871283 </i>
   </energy>
  </scstep>
  <scstep>
   <time name="total">    6.72    5.94</time>
   <energy>
    <i name="e_fr_energy">     -6.73879401 </i>
    <i name="e_wo_entrp">     -6.73867132 </i>
    <i name="e_0_energy">     -6.73873266 </i>
   </energy>
  </scstep>
  <scstep>
   <time name="total">    6.83    5.96</time>
   <energy>
    <i name="e_fr_energy">     -6.73880215 </i>
    <i name="e_wo_entrp">     -6.73867985 </i>
    <i name="e_0_energy">     -6.73874100 </i>
   </energy>
  </scstep>
  <scstep>
   <time name="total">    6.84    5.93</time>
   <energy>
    <i name="e_fr_energy">     -6.73880495 </i>
    <i name="e_wo_entrp">     -6.73868269 </i>
    <i name="e_0_energy">     -6.73874382 </i>
   </energy>
  </scstep>
  <scstep>
   <time name="total">    6.89    5.95</time>
   <energy>
    <i name="e_fr_energy">     -6.73880606 </i>
    <i name="e_wo_entrp">     -6.73868370 </i>
    <i name="e_0_energy">     -6.73874488 </i>
   </energy>
  </scstep>
  <scstep>
   <time name="total">    6.79    5.97</time>
   <energy>
    <i name="alphaZ">      0.05559414 </i>
    <i name="ewald">     52.36713613 </i>
    <i name="hartreedc">   -449.34656827 </i>
    <i name="XCdc">     31.46880882 </i>
    <i name="pawpsdc">    376.25249671 </i>
    <i name="pawaedc">   -378.06920194 </i>
    <i name="eentropy">     -0.00012251 </i>
    <i name="bandstr">    -96.79887817 </i>
    <i name="atom">    457.33192828 </i>
    <i name="e_fr_energy">     -6.73880665 </i>
    <i name="e_wo_entrp">     -6.73868414 </i>
    <i name="e_0_energy">     -6.73874539 </i>
   </energy>
  </scstep>
  <structure>
   <crystal>
    <varray name="basis" >
     <v>      11.10380000       0.00000000       0.00000000 </v>
     <v>       0.00000000      11.20020000       0.00000000 </v>
     <v>       0.00000000       0.00000000      32.43460000 </v>
    </varray>
    <i name="volume">   4033.72191804 </i>
    <varray name="rec_basis" >
     <v>       0.09005926       0.00000000       0.00000000 </v>
     <v>       0.00000000       0.08928412       0.00000000 </v>
     <v>       0.00000000       0.00000000       0.03083127 </v>
    </varray>
   </crystal>
   <varray name="positions" >
    <v>       0.51652505       0.63388628       0.46298052 </v>
    <v>       0.55134510       0.62481041       0.53493702 </v>
    <v>       0.45779985       0.62961331       0.56755246 </v>
   </varray>
  </structure>
  <varray name="forces" >
   <v>       0.01112457      -0.00252550       0.06187299 </v>
   <v>      -3.60500673       0.18867844       3.60317665 </v>
   <v>       3.59388216      -0.18615294      -3.66504964 </v>
  </varray>
  <varray name="stress" >
   <v>      -1.50203123       0.07708908       1.49931311 </v>
   <v>       0.07708908      -0.02114901      -0.07568298 </v>
   <v>       1.49931311      -0.07568298      -1.61677758 </v>
  </varray>
  <energy>
   <i name="e_fr_energy">     -6.73880665 </i>
   <i name="e_wo_entrp">     -6.73868414 </i>
   <i name="e_0_energy">     -6.73874539 </i>
  </energy>
  <time name="totalsc">  161.19  140.98</time>
 </calculation>
 <calculation>
  <scstep>
   <time name="total">    6.81    6.04</time>
   <energy>
    <i name="alphaZ">      0.05559414 </i>
    <i name="ewald">     55.68720359 </i>
    <i name="hartreedc">   -441.06914147 </i>
    <i name="XCdc">     31.01768736 </i>
    <i name="pawpsdc">    370.45983249 </i>
    <i name="pawaedc">   -372.05555212 </i>
    <i name="eentropy">     -0.00000742 </i>
    <i name="bandstr">   -105.24223422 </i>
    <i name="atom">    457.33192828 </i>
    <i name="e_fr_energy">     -3.81469155 </i>
    <i name="e_wo_entrp">     -3.81468413 </i>
    <i name="e_0_energy">     -3.81468784 </i>
   </energy>
  </scstep>
  <scstep>
   <time name="total">    6.79    5.94</time>
   <energy>
    <i name="e_fr_energy">     -6.17637321 </i>
    <i name="e_wo_entrp">     -6.17636149 </i>
    <i name="e_0_energy">     -6.17636735 </i>
   </energy>
  </scstep>
  <scstep>
   <time name="total">    6.69    5.95</time>
   <energy>
    <i name="e_fr_energy">     -6.81483645 </i>
    <i name="e_wo_entrp">     -6.81481554 </i>
    <i name="e_0_energy">     -6.81482599 </i>
   </energy>
  </scstep>
  <scstep>
   <time name="total">    6.76    5.95</time>
   <energy>
    <i name="e_fr_energy">     -6.93859101 </i>
    <i name="e_wo_entrp">     -6.93855361 </i>
    <i name="e_0_energy">     -6.93857231 </i>
   </energy>
  </scstep>
  <scstep>
   <time name="total">    6.70    5.93</time>
   <energy>
    <i name="e_fr_energy">     -6.96819092 </i>
    <i name="e_wo_entrp">     -6.96812540 </i>
    <i name="e_0_energy">     -6.96815816 </i>
   </energy>
  </scstep>
  <scstep>
   <time name="total">    6.91    6.00</time>
   <energy>
    <i name="e_fr_energy">     -6.97970784 </i>
    <i name="e_wo_entrp">     -6.97960896 </i>
    <i name="e_0_energy">     -6.97965840 </i>
   </energy>
  </scstep>
  <scstep>
   <time name="total">    6.89    6.00</time>
   <energy>
    <i name="e_fr_energy">     -6.98417290 </i>
    <i name="e_wo_entrp">     -6.98405215 </i>
    <i name="e_0_energy">     -6.98411252 </i>
   </energy>
  </scstep>
  <scstep>
   <time name="total">    6.79    5.99</time>
   <energy>
    <i name="e_fr_energy">     -6.98563909 </i>
    <i name="e_wo_entrp">     -6.98551064 </i>
    <i name="e_0_energy">     -6.98557486 </i>
   </energy>
  </scstep>
  <scstep>
   <time name="total">    6.92    5.96</time>
   <energy>
    <i name="e_fr_energy">     -6.98599820 </i>
    <i name="e_wo_entrp">     -6.98586856 </i>
    <i name="e_0_energy">     -6.98593338 </i>
   </energy>
  </scstep>
  <scstep>
   <time name="total">    6.78    5.98</time>
   <energy>
    <i name="e_fr_energy">     -6.98608924 </i>
    <i name="e_wo_entrp">     -6.98596022 </i>
    <i name="e_0_energy">     -6.98602473 </i>
   </energy>
  </scstep>
  <scstep>
   <time name="total">    6.73    5.94</time>
   <energy>
    <i name="e_fr_energy">     -6.98612138 </i>
    <i name="e_wo_entrp">     -6.98599376 </i>
    <i name="e_0_energy">     -6.98605757 </i>
   </energy>
  </scstep>
  <scstep>
   <time name="total">    6.78    5.96</time>
   <energy>
    <i name="e_fr_energy">     -6.98613629 </i>
    <i name="e_wo_entrp">     -6.98600966 </i>
    <i name="e_0_energy">     -6.98607297 </i>
   </energy>
  </scstep>
  <scstep>
   <time name="total">    6.74    5.95</time>
   <energy>
    <i name="e_fr_energy">     -6.98614219 </i>
    <i name="e_wo_entrp">     -6.98601599 </i>
    <i name="e_0_energy">     -6.98607909 </i>
   </energy>
  </scstep>
  <scstep>
   <time name="total">    6.77    5.96</time>
   <energy>
    <i name="e_fr_energy">     -6.98614403 </i>
    <i name="e_wo_entrp">     -6.98601789 </i>
    <i name="e_0_energy">     -6.98608096 </i>
   </energy>
  </scstep>
  <scstep>
   <time name="total">    6.87    5.97</time>
   <energy>
    <i name="alphaZ">      0.05559414 </i>
    <i name="ewald">     55.68720359 </i>
    <i name="hartreedc">   -452.57649344 </i>
    <i name="XCdc">     31.53702674 </i>
    <i name="pawpsdc">    378.95255392 </i>
    <i name="pawaedc">   -380.77131312 </i>
    <i name="eentropy">     -0.00012619 </i>
    <i name="bandstr">    -97.20251860 </i>
    <i name="atom">    457.33192828 </i>
    <i name="e_fr_energy">     -6.98614463 </i>
    <i name="e_wo_entrp">     -6.98601843 </i>
    <i name="e_0_energy">     -6.98608153 </i>
   </energy>
  </scstep>
  <structure>
   <crystal>
    <varray name="basis" >
     <v>      11.10380000       0.00000000       0.00000000 </v>
     <v>       0.00000000      11.20020000       0.00000000 </v>
     <v>       0.00000000       0.00000000      32.43460000 </v>
    </varray>
    <i name="volume">   4033.72191804 </i>
    <varray name="rec_basis" >
     <v>       0.09005926       0.00000000       0.00000000 </v>
     <v>       0.00000000       0.08928412       0.00000000 </v>
     <v>       0.00000000       0.00000000       0.03083127 </v>
    </varray>
   </crystal>
   <varray name="positions" >
    <v>       0.51505616       0.63381155       0.46522517 </v>
    <v>       0.55218297       0.62474723       0.53487724 </v>
    <v>       0.45843088       0.62975122       0.56536759 </v>
   </varray>
  </structure>
  <varray name="forces" >
   <v>       0.00972637      -0.00256044       0.06850783 </v>
   <v>      -3.81427640       0.20715374       3.55971332 </v>
   <v>       3.80455003      -0.20459330      -3.62822115 </v>
  </varray>
  <varray name="stress" >
   <v>      -1.59200801       0.08495317       1.48542045 </v>
   <v>       0.08495317      -0.02126520      -0.07783514 </v>
   <v>       1.48542045      -0.07783514      -1.50506530 </v>
  </varray>
  <energy>
   <i name="e_fr_energy">     -6.98614463 </i>
   <i name="e_wo_entrp">     -6.98601843 </i>
   <i name="e_0_energy">     -6.98608153 </i>
  </energy>
  <time name="totalsc">  153.67  134.93</time>
 </calculation>
 <calculation>
  <scstep>
   <time name="total">    6.79    6.01</time>
   <energy>
    <i name="alphaZ">      0.05559414 </i>
    <i name="ewald">     91.79697745 </i>
    <i name="hartreedc">   -122.14836176 </i>
    <i name="XCdc">     14.46658333 </i>
    <i name="pawpsdc">    184.68692508 </i>
    <i name="pawaedc">   -185.23799738 </i>
    <i name="eentropy">     -0.01370123 </i>
    <i name="bandstr">   -251.03262964 </i>
    <i name="atom">    457.33192828 </i>
    <i name="e_fr_energy">    189.79966235 </i>
    <i name="e_wo_entrp">    189.81336358 </i>
    <i name="e_0_energy">    189.80651297 </i>
   </energy>
  </scstep>
  <scstep>
   <time name="total">    6.81    5.97</time>
   <energy>
    <i name="e_fr_energy">    119.52719868 </i>
    <i name="e_wo_entrp">    119.52721243 </i>
    <i name="e_0_energy">    119.52720556 </i>
   </energy>
  </scstep>
  <scstep>
   <time name="total">    6.73    5.95</time>
   <energy>
    <i name="e_fr_energy">     63.07892759 </i>
    <i name="e_wo_entrp">     63.07892762 </i>
    <i name="e_0_energy">     63.07892761 </i>
   </energy>
  </scstep>
  <scstep>
   <time name="total">    6.77    5.93</time>
   <energy>
    <i name="e_fr_energy">     16.06920737 </i>
    <i name="e_wo_entrp">     16.06920737 </i>
    <i name="e_0_energy">     16.06920737 </i>
   </energy>
  </scstep>
  <scstep>
   <time name="total">    6.96    5.99</time>
   <energy>
    <i name="e_fr_energy">      1.82075979 </i>
    <i name="e_wo_entrp">      1.82075979 </i>
    <i name="e_0_energy">      1.82075979 </i>
   </energy>
  </scstep>
  <scstep>
   <time name="total">    6.82    6.00</time>
   <energy>
    <i name="e_fr_energy">     -4.70833578 </i>
    <i name="e_wo_entrp">     -4.70833578 </i>
    <i name="e_0_energy">     -4.70833578 </i>
   </energy>
  </scstep>
  <scstep>
   <time name="total">    6.82    5.96</time>
   <energy>
    <i name="e_fr_energy">     -7.11868872 </i>
    <i name="e_wo_entrp">     -7.11868872 </i>
    <i name="e_0_energy">     -7.11868872 </i>
   </energy>
  </scstep>
  <scstep>
   <time name="total">    6.88    5.95</time>
   <energy>
    <i name="e_fr_energy">     -8.25698589 </i>
    <i name="e_wo_entrp">     -8.25698589 </i>
    <i name="e_0_energy">     -8.25698589 </i>
   </energy>
  </scstep>
  <scstep>
   <time name="total">    6.82    5.95</time>
   <energy>
    <i name="e_fr_energy">     -8.72398600 </i>
    <i name="e_wo_entrp">     -8.72398599 </i>
    <i name="e_0_energy">     -8.72398600 </i>
   </energy>
  </scstep>
  <scstep>
   <time name="total">    6.87    5.95</time>
   <energy>
    <i name="e_fr_energy">     -8.89964251 </i>
    <i name="e_wo_entrp">     -8.89964140 </i>
    <i name="e_0_energy">     -8.89964195 </i>
   </energy>
  </scstep>
  <scstep>
   <time name="total">    6.72    5.96</time>
   <energy>
    <i name="e_fr_energy">     -8.98153597 </i>
    <i name="e_wo_entrp">     -8.98150377 </i>
    <i name="e_0_energy">     -8.98151987 </i>
   </energy>
  </scstep>
  <scstep>
   <time name="total">    6.69    5.94</time>
   <energy>
    <i name="e_fr_energy">     -9.01763743 </i>
    <i name="e_wo_entrp">     -9.01736554 </i>
    <i name="e_0_energy">     -9.01750148 </i>
   </energy>
  </scstep>
  <scstep>
   <time name="total">    6.91    5.98</time>
   <energy>
    <i name="e_fr_energy">     -9.04161849 </i>
    <i name="e_wo_entrp">     -9.04102752 </i>
    <i name="e_0_energy">     -9.04132301 </i>
   </energy>
  </scstep>
  <scstep>
   <time name="total">    6.76    5.98</time>
   <energy>
    <i name="e_fr_energy">     -9.05813140 </i>
    <i name="e_wo_entrp">     -9.05765181 </i>
    <i name="e_0_energy">     -9.05789161 </i>
   </energy>
  </scstep>
  <scstep>
   <time name="total">    6.87    6.00</time>
   <energy>
    <i name="e_fr_energy">     -9.06783332 </i>
    <i name="e_wo_entrp">     -9.06766084 </i>
    <i name="e_0_energy">     -9.06774708 </i>
   </energy>
  </scstep>
  <scstep>
   <time name="total">    6.75    5.94</time>
   <energy>
    <i name="e_fr_energy">     -9.07430339 </i>
    <i name="e_wo_entrp">     -9.07424309 </i>
    <i name="e_0_energy">     -9.07427324 </i>
   </energy>
  </scstep>
  <scstep>
   <time name="total">    6.76    5.95</time>
   <energy>
    <i name="e_fr_energy">     -9.07739082 </i>
    <i name="e_wo_entrp">     -9.07737118 </i>
    <i name="e_0_energy">     -9.07738100 </i>
   </energy>
  </scstep>
  <scstep>
   <time name="total">    6.73    5.99</time>
   <energy>
    <i name="e_fr_energy">     -9.07965812 </i>
    <i name="e_wo_entrp">     -9.07964747 </i>
    <i name="e_0_energy">     -9.07965279 </i>
   </energy>
  </scstep>
  <scstep>
   <time name="total">    6.75    5.98</time>
   <energy>
    <i name="e_fr_energy">     -9.08080111 </i>
    <i name="e_wo_entrp">     -9.08079356 </i>
    <i name="e_0_energy">     -9.08079733 </i>
   </energy>
  </scstep>
  <scstep>
   <time name="total">    6.79    5.92</time>
   <energy>
    <i name="e_fr_energy">     -9.08161872 </i>
    <i name="e_wo_entrp">     -9.08161090 </i>
    <i name="e_0_energy">     -9.08161481 </i>
   </energy>
  </scstep>
  <scstep>
   <time name="total">    6.72    5.89</time>
   <energy>
    <i name="e_fr_energy">     -9.08207479 </i>
    <i name="e_wo_entrp">     -9.08206470 </i>
    <i name="e_0_energy">     -9.08206975 </i>
   </energy>
  </scstep>
  <scstep>
   <time name="total">    6.90    5.94</time>
   <energy>
    <i name="e_fr_energy">     -9.08240460 </i>
    <i name="e_wo_entrp">     -9.08239011 </i>
    <i name="e_0_energy">     -9.08239735 </i>
   </energy>
  </scstep>
  <scstep>
   <time name="total">    6.76    5.98</time>
   <energy>
    <i name="e_fr_energy">     -9.08263294 </i>
    <i name="e_wo_entrp">     -9.08261393 </i>
    <i name="e_0_energy">     -9.08262343 </i>
   </energy>
  </scstep>
  <scstep>
   <time name="total">    6.83    5.98</time>
   <energy>
    <i name="e_fr_energy">     -9.08277069 </i>
    <i name="e_wo_entrp">     -9.08274787 </i>
    <i name="e_0_energy">     -9.08275928 </i>
   </energy>
  </scstep>
  <scstep>
   <time name="total">    6.94    5.99</time>
   <energy>
    <i name="e_fr_energy">     -9.08286024 </i>
    <i name="e_wo_entrp">     -9.08283618 </i>
    <i name="e_0_energy">     -9.08284821 </i>
   </energy>
  </scstep>
  <scstep>
   <time name="total">    7.00    6.00</time>
   <energy>
    <i name="e_fr_energy">     -9.08290083 </i>
    <i name="e_wo_entrp">     -9.08287728 </i>
    <i name="e_0_energy">     -9.08288905 </i>
   </energy>
  </scstep>
  <scstep>
   <time name="total">    6.89    6.00</time>
   <energy>
    <i name="e_fr_energy">     -9.08292878 </i>
    <i name="e_wo_entrp">     -9.08290649 </i>
    <i name="e_0_energy">     -9.08291764 </i>
   </energy>
  </scstep>
  <scstep>
   <time name="total">    6.74    6.01</time>
   <energy>
    <i name="e_fr_energy">     -9.08294282 </i>
    <i name="e_wo_entrp">     -9.08292214 </i>
    <i name="e_0_energy">     -9.08293248 </i>
   </energy>
  </scstep>
  <scstep>
   <time name="total">    6.82    6.01</time>
   <energy>
    <i name="e_fr_energy">     -9.08295439 </i>
    <i name="e_wo_entrp">     -9.08293478 </i>
    <i name="e_0_energy">     -9.08294458 </i>
   </energy>
  </scstep>
  <scstep>
   <time name="total">    6.77    5.99</time>
   <energy>
    <i name="e_fr_energy">     -9.08296128 </i>
    <i name="e_wo_entrp">     -9.08294242 </i>
    <i name="e_0_energy">     -9.08295185 </i>
   </energy>
  </scstep>
  <scstep>
   <time name="total">    6.90    6.01</time>
   <energy>
    <i name="e_fr_energy">     -9.08296660 </i>
    <i name="e_wo_entrp">     -9.08294791 </i>
    <i name="e_0_energy">     -9.08295725 </i>
   </energy>
  </scstep>
  <scstep>
   <time name="total">    6.76    5.98</time>
   <energy>
    <i name="e_fr_energy">     -9.08296963 </i>
    <i name="e_wo_entrp">     -9.08295062 </i>
    <i name="e_0_energy">     -9.08296012 </i>
   </energy>
  </scstep>
  <scstep>
   <time name="total">    6.79    6.03</time>
   <energy>
    <i name="e_fr_energy">     -9.08297187 </i>
    <i name="e_wo_entrp">     -9.08295244 </i>
    <i name="e_0_energy">     -9.08296216 </i>
   </energy>
  </scstep>
  <scstep>
   <time name="total">    6.79    6.00</time>
   <energy>
    <i name="e_fr_energy">     -9.08297356 </i>
    <i name="e_wo_entrp">     -9.08295394 </i>
    <i name="e_0_energy">     -9.08296375 </i>
   </energy>
  </scstep>
  <scstep>
   <time name="total">    6.81    6.04</time>
   <energy>
    <i name="alphaZ">      0.05559414 </i>
    <i name="ewald">     91.79697745 </i>
    <i name="hartreedc">   -489.13750116 </i>
    <i name="XCdc">     32.07152900 </i>
    <i name="pawpsdc">    414.31001845 </i>
    <i name="pawaedc">   -416.15836622 </i>
    <i name="eentropy">     -0.00001963 </i>
    <i name="bandstr">    -99.35313435 </i>
    <i name="atom">    457.33192828 </i>
    <i name="e_fr_energy">     -9.08297402 </i>
    <i name="e_wo_entrp">     -9.08295440 </i>
    <i name="e_0_energy">     -9.08296421 </i>
   </energy>
  </scstep>
  <structure>
   <crystal>
    <varray name="basis" >
     <v>      11.10380000       0.00000000       0.00000000 </v>
     <v>       0.00000000      11.20020000       0.00000000 </v>
     <v>       0.00000000       0.00000000      32.43460000 </v>
    </varray>
    <i name="volume">   4033.72191804 </i>
    <varray name="rec_basis" >
[...]
        <r>    -4.9826     0.0000     0.0000     0.0000     0.0000     0.0000     0.0000     0.0000     0.0000     0.0000 </r>
        <r>    -4.8866     0.0000     0.0000     0.0000     0.0000     0.0000     0.0000     0.0000     0.0000     0.0000 </r>
        <r>    -4.7906     0.0000     0.0000     0.0000     0.0000     0.0000     0.0000     0.0000     0.0000     0.0000 </r>
        <r>    -4.6947     0.0000     0.0000     0.0000     0.0000     0.0000     0.0000     0.0000     0.0000     0.0000 </r>
        <r>    -4.5987     0.0000     0.0000     0.0000     0.0000     0.0000     0.0000     0.0000     0.0000     0.0000 </r>
        <r>    -4.5027     0.0000     0.0000     0.0000     0.0000     0.0000     0.0000     0.0000     0.0000     0.0000 </r>
        <r>    -4.4067     0.0000     0.0000     0.0000     0.0000     0.0000     0.0000     0.0000     0.0000     0.0000 </r>
        <r>    -4.3107     0.0000     0.0000     0.0000     0.0000     0.0000     0.0000     0.0000     0.0000     0.0000 </r>
        <r>    -4.2147     0.0000     0.0000     0.0000     0.0000     0.0000     0.0000     0.0000     0.0000     0.0000 </r>
        <r>    -4.1188     0.0000     0.0000     0.0000     0.0000     0.0000     0.0000     0.0000     0.0000     0.0000 </r>
        <r>    -4.0228     0.0000     0.0000     0.0000     0.0000     0.0000     0.0000     0.0000     0.0000     0.0000 </r>
        <r>    -3.9268     0.0000     0.0000     0.0000     0.0000     0.0000     0.0000     0.0000     0.0000     0.0000 </r>
        <r>    -3.8308     0.0000     0.0000     0.0000     0.0000     0.0000     0.0000     0.0000     0.0000     0.0000 </r>
        <r>    -3.7348     0.0000     0.0000     0.0000     0.0000     0.0000     0.0000     0.0000     0.0000     0.0000 </r>
        <r>    -3.6388     0.0000     0.0000     0.0000     0.0000     0.0000     0.0000     0.0000     0.0000     0.0000 </r>
        <r>    -3.5428     0.0000     0.0000     0.0000     0.0000     0.0000     0.0000     0.0000     0.0000     0.0000 </r>
        <r>    -3.4469     0.0000     0.0000     0.0000     0.0000     0.0000     0.0000     0.0000     0.0000     0.0000 </r>
        <r>    -3.3509     0.0000     0.0000     0.0000     0.0000     0.0000     0.0000     0.0000     0.0000     0.0000 </r>
        <r>    -3.2549     0.0000     0.0000     0.0000     0.0000     0.0000     0.0000     0.0000     0.0000     0.0000 </r>
        <r>    -3.1589     0.0000     0.0000     0.0000     0.0000     0.0000     0.0000     0.0000     0.0000     0.0000 </r>
        <r>    -3.0629     0.0000     0.0000     0.0000     0.0000     0.0000     0.0000     0.0000     0.0000     0.0000 </r>
        <r>    -2.9669     0.0000     0.0000     0.0000     0.0000     0.0000     0.0000     0.0000     0.0000     0.0000 </r>
        <r>    -2.8710     0.0000     0.0000     0.0000     0.0000     0.0000     0.0000     0.0000     0.0000     0.0000 </r>
        <r>    -2.7750     0.0000     0.0000     0.0000     0.0000     0.0000     0.0000     0.0000     0.0000     0.0000 </r>
        <r>    -2.6790     0.0000     0.0000     0.0000     0.0000     0.0000     0.0000     0.0000     0.0000     0.0000 </r>
        <r>    -2.5830     0.0000     0.0000     0.0000     0.0000     0.0000     0.0000     0.0000     0.0000     0.0000 </r>
        <r>    -2.4870     0.0000     0.0000     0.0000     0.0000     0.0000     0.0000     0.0000     0.0000     0.0000 </r>
        <r>    -2.3910     0.0000     0.0000     0.0000     0.0000     0.0000     0.0000     0.0000     0.0000     0.0000 </r>
        <r>    -2.2951     0.0000     0.0000     0.0000     0.0000     0.0000     0.0000     0.0000     0.0000     0.0000 </r>
        <r>    -2.1991     0.0000     0.0000     0.0000     0.0000     0.0000     0.0000     0.0000     0.0000     0.0000 </r>
        <r>    -2.1031     0.0000     0.0000     0.0000     0.0000     0.0000     0.0000     0.0000     0.0000     0.0000 </r>
        <r>    -2.0071     0.0000     0.0000     0.0000     0.0000     0.0000     0.0000     0.0000     0.0000     0.0000 </r>
        <r>    -1.9111     0.0000     0.0000     0.0000     0.0000     0.0000     0.0000     0.0000     0.0000     0.0000 </r>
        <r>    -1.8151     0.0000     0.0000     0.0000     0.0000     0.0000     0.0000     0.0000     0.0000     0.0000 </r>
        <r>    -1.7192     0.0000     0.0000     0.0000     0.0000     0.0000     0.0000     0.0000     0.0000     0.0000 </r>
        <r>    -1.6232     0.0000     0.0000     0.0000     0.0000     0.0000     0.0000     0.0000     0.0000     0.0000 </r>
        <r>    -1.5272     0.0000     0.0000     0.0000     0.0000     0.0000     0.0000     0.0000     0.0000     0.0000 </r>
        <r>    -1.4312     0.0000     0.0000     0.0000     0.0000     0.0000     0.0000     0.0000     0.0000     0.0000 </r>
        <r>    -1.3352     0.0002     0.0000     0.0001     0.0002     0.0000     0.0000     0.0000     0.0000     0.0000 </r>
        <r>    -1.2392     0.0016     0.0000     0.0008     0.0013     0.0000     0.0000     0.0000     0.0000     0.0000 </r>
        <r>    -1.1433     0.0105     0.0000     0.0050     0.0086     0.0000     0.0000     0.0000     0.0000     0.0000 </r>
        <r>    -1.0473     0.0546     0.0002     0.0262     0.0447     0.0000     0.0000     0.0000     0.0000     0.0000 </r>
        <r>    -0.9513     0.1221     0.0004     0.0585     0.0999     0.0000     0.0000     0.0000     0.0000     0.0000 </r>
        <r>    -0.8553     0.0689     0.0002     0.0330     0.0564     0.0000     0.0000     0.0000     0.0000     0.0000 </r>
        <r>    -0.7593     0.0146     0.0000     0.0070     0.0119     0.0000     0.0000     0.0000     0.0000     0.0000 </r>
        <r>    -0.6633     0.0023     0.0000     0.0011     0.0019     0.0000     0.0000     0.0000     0.0000     0.0000 </r>
        <r>    -0.5674     0.0000     0.0000     0.0000     0.0000     0.0000     0.0000     0.0000     0.0000     0.0000 </r>
        <r>    -0.4714     0.0000     0.0000     0.0000     0.0000     0.0000     0.0000     0.0000     0.0000     0.0000 </r>
        <r>    -0.3754     0.0000     0.0000     0.0000     0.0000     0.0000     0.0000     0.0000     0.0000     0.0000 </r>
        <r>    -0.2794     0.0000     0.0000     0.0000     0.0000     0.0000     0.0000     0.0000     0.0000     0.0000 </r>
        <r>    -0.1834     0.0001     0.0000     0.0001     0.0002     0.0000     0.0000     0.0000     0.0000     0.0000 </r>
        <r>    -0.0874     0.0007     0.0000     0.0006     0.0015     0.0000     0.0000     0.0000     0.0000     0.0000 </r>
        <r>     0.0086     0.0028     0.0000     0.0032     0.0063     0.0000     0.0000     0.0000     0.0000     0.0000 </r>
        <r>     0.1045     0.0039     0.0001     0.0114     0.0098     0.0000     0.0000     0.0000     0.0000     0.0000 </r>
        <r>     0.2005     0.0030     0.0001     0.0158     0.0081     0.0000     0.0000     0.0000     0.0000     0.0000 </r>
        <r>     0.2965     0.0077     0.0001     0.0199     0.0145     0.0000     0.0000     0.0000     0.0000     0.0000 </r>
        <r>     0.3925     0.0136     0.0002     0.0487     0.0308     0.0000     0.0000     0.0000     0.0000     0.0000 </r>
        <r>     0.4885     0.0068     0.0003     0.0590     0.0275     0.0000     0.0000     0.0000     0.0000     0.0000 </r>
        <r>     0.5845     0.0039     0.0004     0.0266     0.0148     0.0000     0.0000     0.0000     0.0000     0.0000 </r>
        <r>     0.6804     0.0097     0.0018     0.0245     0.0289     0.0000     0.0000     0.0000     0.0000     0.0000 </r>
        <r>     0.7764     0.0118     0.0101     0.0456     0.0691     0.0000     0.0000     0.0000     0.0000     0.0000 </r>
        <r>     0.8724     0.0060     0.0417     0.0410     0.0677     0.0000     0.0000     0.0000     0.0000     0.0000 </r>
        <r>     0.9684     0.0015     0.0674     0.0124     0.0214     0.0000     0.0000     0.0000     0.0000     0.0000 </r>
        <r>     1.0644     0.0003     0.0284     0.0021     0.0039     0.0000     0.0000     0.0000     0.0000     0.0000 </r>
        <r>     1.1604     0.0000     0.0054     0.0003     0.0006     0.0000     0.0000     0.0000     0.0000     0.0000 </r>
        <r>     1.2563     0.0000     0.0008     0.0000     0.0000     0.0000     0.0000     0.0000     0.0000     0.0000 </r>
        <r>     1.3523     0.0000     0.0000     0.0000     0.0000     0.0000     0.0000     0.0000     0.0000     0.0000 </r>
        <r>     1.4483     0.0000     0.0000     0.0000     0.0000     0.0000     0.0000     0.0000     0.0000     0.0000 </r>
        <r>     1.5443     0.0000     0.0000     0.0000     0.0000     0.0000     0.0000     0.0000     0.0000     0.0000 </r>
        <r>     1.6403     0.0000     0.0000     0.0000     0.0000     0.0000     0.0000     0.0000     0.0000     0.0000 </r>
        <r>     1.7363     0.0000     0.0000     0.0000     0.0000     0.0000     0.0000     0.0000     0.0000     0.0000 </r>
        <r>     1.8322     0.0000     0.0000     0.0000     0.0000     0.0000     0.0000     0.0000     0.0000     0.0000 </r>
        <r>     1.9282     0.0000     0.0000     0.0000     0.0000     0.0000     0.0000     0.0000     0.0000     0.0000 </r>
        <r>     2.0242     0.0000     0.0000     0.0000     0.0000     0.0000     0.0000     0.0000     0.0000     0.0000 </r>
        <r>     2.1202     0.0000     0.0000     0.0000     0.0000     0.0000     0.0000     0.0000     0.0000     0.0000 </r>
        <r>     2.2162     0.0000     0.0000     0.0000     0.0000     0.0000     0.0000     0.0000     0.0000     0.0000 </r>
       </set>
      </set>
     </set>
    </array>
   </partial>
  </dos>
  <projected>
   <eigenvalues>
    <array>
     <dimension dim="1">band</dimension>
     <dimension dim="2">kpoint</dimension>
     <dimension dim="3">spin</dimension>
     <field>eigene</field>
     <field>occ</field>
     <set>
      <set comment="spin 1">
       <set comment="kpoint 1">
        <r>  -25.2701    1.0000 </r>
        <r>  -13.0642    1.0000 </r>
        <r>   -9.2361    1.0000 </r>
        <r>   -7.1699    1.0000 </r>
        <r>   -0.9906    0.0000 </r>
        <r>    0.0217    0.0000 </r>
        <r>    0.1183    0.0000 </r>
        <r>    0.3372    0.0000 </r>
        <r>    0.4228    0.0000 </r>
        <r>    0.6809    0.0000 </r>
        <r>    0.7844    0.0000 </r>
        <r>    0.9073    0.0000 </r>
       </set>
      </set>
      <set comment="spin 2">
       <set comment="kpoint 1">
        <r>  -25.2701    1.0000 </r>
        <r>  -13.0642    1.0000 </r>
        <r>   -9.2361    1.0000 </r>
        <r>   -7.1699    1.0000 </r>
        <r>   -0.9906    0.0000 </r>
        <r>    0.0217    0.0000 </r>
        <r>    0.1183    0.0000 </r>
        <r>    0.3372    0.0000 </r>
        <r>    0.4228    0.0000 </r>
        <r>    0.6809    0.0000 </r>
        <r>    0.7844    0.0000 </r>
        <r>    0.9073    0.0000 </r>
       </set>
      </set>
     </set>
    </array>
   </eigenvalues>
   <array>
    <dimension dim="1">ion</dimension>
    <dimension dim="2">band</dimension>
    <dimension dim="3">kpoint</dimension>
    <dimension dim="4">spin</dimension>
    <field>    s</field>
    <field>   py</field>
    <field>   pz</field>
    <field>   px</field>
    <field>  dxy</field>
    <field>  dyz</field>
    <field>  dz2</field>
    <field>  dxz</field>
    <field>x2-y2</field>
    <set>
     <set comment="spin1">
      <set comment="kpoint 1">
       <set comment="band 1">
        <r>  0.0974  0.0000  0.0206  0.0001  0.0000  0.0000  0.0000  0.0000  0.0000 </r>
        <r>  0.0972  0.0002  0.0026  0.0179  0.0000  0.0000  0.0000  0.0000  0.0000 </r>
        <r>  0.7026  0.0001  0.0136  0.0252  0.0000  0.0000  0.0000  0.0000  0.0000 </r>
       </set>
       <set comment="band 2">
        <r>  0.1661  0.0000  0.0171  0.0021  0.0000  0.0000  0.0000  0.0000  0.0000 </r>
        <r>  0.1661  0.0001  0.0000  0.0191  0.0000  0.0000  0.0000  0.0000  0.0000 </r>
        <r>  0.0000  0.0028  0.3532  0.1865  0.0000  0.0000  0.0000  0.0000  0.0000 </r>
       </set>
       <set comment="band 3">
        <r>  0.0497  0.0001  0.0027  0.0056  0.0000  0.0000  0.0000  0.0000  0.0000 </r>
        <r>  0.0497  0.0000  0.0076  0.0007  0.0000  0.0000  0.0000  0.0000  0.0000 </r>
        <r>  0.0805  0.0013  0.1922  0.3591  0.0000  0.0000  0.0000  0.0000  0.0000 </r>
       </set>
       <set comment="band 4">
        <r>  0.0000  0.0119  0.0000  0.0001  0.0000  0.0000  0.0000  0.0000  0.0000 </r>
        <r>  0.0000  0.0118  0.0000  0.0001  0.0000  0.0000  0.0000  0.0000  0.0000 </r>
        <r>  0.0000  0.6617  0.0006  0.0045  0.0000  0.0000  0.0000  0.0000  0.0000 </r>
       </set>
       <set comment="band 5">
        <r>  0.0044  0.0000  0.0111  0.0001  0.0000  0.0000  0.0000  0.0000  0.0000 </r>
        <r>  0.0044  0.0001  0.0018  0.0088  0.0000  0.0000  0.0000  0.0000  0.0000 </r>
        <r>  0.0264  0.0001  0.0127  0.0216  0.0000  0.0000  0.0000  0.0000  0.0000 </r>
       </set>
       <set comment="band 6">
        <r>  0.0001  0.0000  0.0000  0.0000  0.0000  0.0000  0.0000  0.0000  0.0000 </r>
        <r>  0.0003  0.0000  0.0001  0.0007  0.0000  0.0000  0.0000  0.0000  0.0000 </r>
        <r>  0.0008  0.0000  0.0001  0.0016  0.0000  0.0000  0.0000  0.0000  0.0000 </r>
       </set>
       <set comment="band 7">
        <r>  0.0000  0.0000  0.0005  0.0000  0.0000  0.0000  0.0000  0.0000  0.0000 </r>
        <r>  0.0001  0.0000  0.0000  0.0005  0.0000  0.0000  0.0000  0.0000  0.0000 </r>
        <r>  0.0001  0.0000  0.0030  0.0008  0.0000  0.0000  0.0000  0.0000  0.0000 </r>
       </set>
       <set comment="band 8">
        <r>  0.0009  0.0000  0.0020  0.0000  0.0000  0.0000  0.0000  0.0000  0.0000 </r>
        <r>  0.0007  0.0000  0.0003  0.0012  0.0000  0.0000  0.0000  0.0000  0.0000 </r>
        <r>  0.0029  0.0000  0.0032  0.0041  0.0000  0.0000  0.0000  0.0000  0.0000 </r>
       </set>
       <set comment="band 9">
        <r>  0.0002  0.0000  0.0022  0.0001  0.0000  0.0000  0.0000  0.0000  0.0000 </r>
        <r>  0.0004  0.0000  0.0001  0.0021  0.0000  0.0000  0.0000  0.0000  0.0000 </r>
        <r>  0.0001  0.0001  0.0113  0.0039  0.0000  0.0000  0.0000  0.0000  0.0000 </r>
       </set>
       <set comment="band 10">
        <r>  0.0013  0.0000  0.0019  0.0000  0.0000  0.0000  0.0000  0.0000  0.0000 </r>
        <r>  0.0005  0.0000  0.0003  0.0009  0.0000  0.0000  0.0000  0.0000  0.0000 </r>
        <r>  0.0023  0.0000  0.0030  0.0032  0.0000  0.0000  0.0000  0.0000  0.0000 </r>
       </set>
       <set comment="band 11">
        <r>  0.0014  0.0000  0.0031  0.0000  0.0000  0.0000  0.0000  0.0000  0.0000 </r>
        <r>  0.0002  0.0000  0.0000  0.0037  0.0000  0.0000  0.0000  0.0000  0.0000 </r>
        <r>  0.0008  0.0004  0.0092  0.0155  0.0000  0.0000  0.0000  0.0000  0.0000 </r>
       </set>
       <set comment="band 12">
        <r>  0.0000  0.0000  0.0000  0.0000  0.0000  0.0000  0.0000  0.0000  0.0000 </r>
        <r>  0.0000  0.0000  0.0000  0.0000  0.0000  0.0000  0.0000  0.0000  0.0000 </r>
        <r>  0.0000  0.0146  0.0000  0.0002  0.0000  0.0000  0.0000  0.0000  0.0000 </r>
       </set>
      </set>
     </set>
     <set comment="spin2">
      <set comment="kpoint 1">
       <set comment="band 1">
        <r>  0.0974  0.0000  0.0206  0.0001  0.0000  0.0000  0.0000  0.0000  0.0000 </r>
        <r>  0.0972  0.0002  0.0026  0.0179  0.0000  0.0000  0.0000  0.0000  0.0000 </r>
        <r>  0.7026  0.0001  0.0136  0.0252  0.0000  0.0000  0.0000  0.0000  0.0000 </r>
       </set>
       <set comment="band 2">
        <r>  0.1661  0.0000  0.0171  0.0021  0.0000  0.0000  0.0000  0.0000  0.0000 </r>
        <r>  0.1661  0.0001  0.0000  0.0191  0.0000  0.0000  0.0000  0.0000  0.0000 </r>
        <r>  0.0000  0.0028  0.3532  0.1865  0.0000  0.0000  0.0000  0.0000  0.0000 </r>
       </set>
       <set comment="band 3">
        <r>  0.0497  0.0001  0.0027  0.0056  0.0000  0.0000  0.0000  0.0000  0.0000 </r>
        <r>  0.0497  0.0000  0.0076  0.0007  0.0000  0.0000  0.0000  0.0000  0.0000 </r>
        <r>  0.0805  0.0013  0.1922  0.3591  0.0000  0.0000  0.0000  0.0000  0.0000 </r>
       </set>
       <set comment="band 4">
        <r>  0.0000  0.0119  0.0000  0.0001  0.0000  0.0000  0.0000  0.0000  0.0000 </r>
        <r>  0.0000  0.0118  0.0000  0.0001  0.0000  0.0000  0.0000  0.0000  0.0000 </r>
        <r>  0.0000  0.6617  0.0006  0.0045  0.0000  0.0000  0.0000  0.0000  0.0000 </r>
       </set>
       <set comment="band 5">
        <r>  0.0044  0.0000  0.0111  0.0001  0.0000  0.0000  0.0000  0.0000  0.0000 </r>
        <r>  0.0044  0.0001  0.0018  0.0088  0.0000  0.0000  0.0000  0.0000  0.0000 </r>
        <r>  0.0264  0.0001  0.0127  0.0216  0.0000  0.0000  0.0000  0.0000  0.0000 </r>
       </set>
       <set comment="band 6">
        <r>  0.0001  0.0000  0.0000  0.0000  0.0000  0.0000  0.0000  0.0000  0.0000 </r>
        <r>  0.0003  0.0000  0.0001  0.0007  0.0000  0.0000  0.0000  0.0000  0.0000 </r>
        <r>  0.0008  0.0000  0.0001  0.0016  0.0000  0.0000  0.0000  0.0000  0.0000 </r>
       </set>
       <set comment="band 7">
        <r>  0.0000  0.0000  0.0005  0.0000  0.0000  0.0000  0.0000  0.0000  0.0000 </r>
        <r>  0.0001  0.0000  0.0000  0.0005  0.0000  0.0000  0.0000  0.0000  0.0000 </r>
        <r>  0.0001  0.0000  0.0030  0.0008  0.0000  0.0000  0.0000  0.0000  0.0000 </r>
       </set>
       <set comment="band 8">
        <r>  0.0009  0.0000  0.0020  0.0000  0.0000  0.0000  0.0000  0.0000  0.0000 </r>
        <r>  0.0007  0.0000  0.0003  0.0012  0.0000  0.0000  0.0000  0.0000  0.0000 </r>
        <r>  0.0029  0.0000  0.0032  0.0041  0.0000  0.0000  0.0000  0.0000  0.0000 </r>
       </set>
       <set comment="band 9">
        <r>  0.0002  0.0000  0.0022  0.0001  0.0000  0.0000  0.0000  0.0000  0.0000 </r>
        <r>  0.0004  0.0000  0.0001  0.0021  0.0000  0.0000  0.0000  0.0000  0.0000 </r>
        <r>  0.0001  0.0001  0.0113  0.0039  0.0000  0.0000  0.0000  0.0000  0.0000 </r>
       </set>
       <set comment="band 10">
        <r>  0.0013  0.0000  0.0019  0.0000  0.0000  0.0000  0.0000  0.0000  0.0000 </r>
        <r>  0.0005  0.0000  0.0003  0.0009  0.0000  0.0000  0.0000  0.0000  0.0000 </r>
        <r>  0.0023  0.0000  0.0030  0.0032  0.0000  0.0000  0.0000  0.0000  0.0000 </r>
       </set>
       <set comment="band 11">
        <r>  0.0014  0.0000  0.0031  0.0000  0.0000  0.0000  0.0000  0.0000  0.0000 </r>
        <r>  0.0002  0.0000  0.0000  0.0037  0.0000  0.0000  0.0000  0.0000  0.0000 </r>
        <r>  0.0008  0.0004  0.0092  0.0155  0.0000  0.0000  0.0000  0.0000  0.0000 </r>
       </set>
       <set comment="band 12">
        <r>  0.0000  0.0000  0.0000  0.0000  0.0000  0.0000  0.0000  0.0000  0.0000 </r>
        <r>  0.0000  0.0000  0.0000  0.0000  0.0000  0.0000  0.0000  0.0000  0.0000 </r>
        <r>  0.0000  0.0146  0.0000  0.0002  0.0000  0.0000  0.0000  0.0000  0.0000 </r>
       </set>
      </set>
     </set>
    </set>
   </array>
  </projected>
 </calculation>
 <structure name="finalpos" >
  <crystal>
   <varray name="basis" >
    <v>      11.10380000       0.00000000       0.00000000 </v>
    <v>       0.00000000      11.20020000       0.00000000 </v>
    <v>       0.00000000       0.00000000      32.43460000 </v>
   </varray>
   <i name="volume">   4033.72191804 </i>
   <varray name="rec_basis" >
    <v>       0.09005926       0.00000000       0.00000000 </v>
    <v>       0.00000000       0.08928412       0.00000000 </v>
    <v>       0.00000000       0.00000000       0.03083127 </v>
   </varray>
  </crystal>
  <varray name="positions" >
   <v>       0.48239407       0.63354183       0.49910589 </v>
   <v>       0.56353235       0.62361045       0.53732066 </v>
   <v>       0.47974358       0.63115772       0.52904345 </v>
  </varray>
 </structure>
</modeling>
