       N       E                     dE             d eps       ncg     rms          rms(c)
DAV:   1     0.237554557161E+05    0.23755E+05   -0.57195E+05 18304   0.218E+03
DAV:   2     0.794387693691E+04   -0.15812E+05   -0.14645E+05 16232   0.628E+02
DAV:   3     0.189789670257E+04   -0.60460E+04   -0.56848E+04 19512   0.331E+02
DAV:   4    -0.567122506976E+03   -0.24650E+04   -0.23130E+04 22416   0.174E+02
DAV:   5    -0.132585616884E+04   -0.75873E+03   -0.72363E+03 32032   0.106E+02    0.164E+02
RMM:   6    -0.715435803113E+03    0.61042E+03   -0.27328E+03 26143   0.182E+02    0.846E+01
RMM:   7    -0.997207364061E+03   -0.28177E+03   -0.32319E+03 28754   0.104E+02    0.138E+02
RMM:   8    -0.116441258575E+04   -0.16721E+03   -0.21890E+03 28944   0.661E+01    0.136E+02
RMM:   9    -0.135124752990E+04   -0.18683E+03   -0.16071E+03 27914   0.489E+01    0.144E+02
RMM:  10    -0.114172100823E+04    0.20953E+03   -0.84044E+02 25426   0.496E+01    0.904E+01
RMM:  11    -0.119561853195E+04   -0.53898E+02   -0.10161E+03 27240   0.454E+01    0.743E+01
RMM:  12    -0.126187062744E+04   -0.66252E+02   -0.60453E+02 27354   0.246E+01    0.644E+01
RMM:  13    -0.128863149238E+04   -0.26761E+02   -0.30863E+02 26696   0.212E+01    0.743E+01
RMM:  14    -0.120844475634E+04    0.80187E+02   -0.30418E+02 26842   0.275E+01    0.465E+01
RMM:  15    -0.122406881399E+04   -0.15624E+02   -0.30658E+02 26874   0.182E+01    0.803E+01
RMM:  16    -0.122212389774E+04    0.19449E+01   -0.17468E+02 26868   0.902E+00    0.480E+01
RMM:  17    -0.122419993808E+04   -0.20760E+01   -0.86754E+01 26921   0.670E+00    0.258E+01
RMM:  18    -0.123287310384E+04   -0.86732E+01   -0.87362E+01 28675   0.431E+00    0.254E+01
RMM:  19    -0.124250279912E+04   -0.96297E+01   -0.79578E+01 28975   0.342E+00    0.265E+01
RMM:  20    -0.124707805641E+04   -0.45753E+01   -0.63514E+01 27707   0.267E+00    0.262E+01
RMM:  21    -0.124676644846E+04    0.31161E+00   -0.53008E+01 26923   0.398E+00    0.225E+01
RMM:  22    -0.124894428333E+04   -0.21778E+01   -0.75103E+01 28874   0.103E+01    0.341E+01
RMM:  23    -0.125724514750E+04   -0.83009E+01   -0.55068E+01 27347   0.583E+00    0.574E+01
RMM:  24    -0.125703853240E+04    0.20662E+00   -0.24712E+01 27057   0.319E+00    0.497E+01
RMM:  25    -0.125885140796E+04   -0.18129E+01   -0.19736E+01 29000   0.194E+00    0.493E+01
RMM:  26    -0.126293637258E+04   -0.40850E+01   -0.21297E+01 28823   0.188E+00    0.511E+01
RMM:  27    -0.126499524598E+04   -0.20589E+01   -0.16948E+01 29568   0.147E+00    0.500E+01
RMM:  28    -0.126684373310E+04   -0.18485E+01   -0.12226E+01 29525   0.123E+00    0.504E+01
RMM:  29    -0.126905256114E+04   -0.22088E+01   -0.10244E+01 28880   0.108E+00    0.529E+01
RMM:  30    -0.127041276655E+04   -0.13602E+01   -0.79685E+00 29579   0.897E-01    0.544E+01
RMM:  31    -0.126998909589E+04    0.42367E+00   -0.50054E+00 27827   0.771E-01    0.542E+01
RMM:  32    -0.127081473098E+04   -0.82564E+00   -0.42447E+00 27901   0.667E-01    0.553E+01
RMM:  33    -0.127180117257E+04   -0.98644E+00   -0.33319E+00 27755   0.626E-01    0.568E+01
RMM:  34    -0.127214088578E+04   -0.33971E+00   -0.27219E+00 27872   0.533E-01    0.568E+01
RMM:  35    -0.127203967326E+04    0.10121E+00   -0.21248E+00 27494   0.562E-01    0.562E+01
RMM:  36    -0.127142395501E+04    0.61572E+00   -0.18162E+00 27590   0.548E-01    0.555E+01
RMM:  37    -0.127159718654E+04   -0.17323E+00   -0.12913E+00 28062   0.625E-01    0.594E+01
RMM:  38    -0.127095125542E+04    0.64593E+00   -0.11996E+00 27934   0.606E-01    0.597E+01
RMM:  39    -0.127111769689E+04   -0.16644E+00   -0.82408E-01 27540   0.346E-01    0.601E+01
RMM:  40    -0.127099795078E+04    0.11975E+00   -0.63885E-01 26997   0.300E-01    0.591E+01
RMM:  41    -0.127110062430E+04   -0.10267E+00   -0.56645E-01 27230   0.310E-01    0.598E+01
RMM:  42    -0.127115857612E+04   -0.57952E-01   -0.41753E-01 26976   0.275E-01    0.602E+01
RMM:  43    -0.127080217832E+04    0.35640E+00   -0.34495E-01 27618   0.309E-01    0.600E+01
RMM:  44    -0.127091824302E+04   -0.11606E+00   -0.25794E-01 26896   0.230E-01    0.604E+01
RMM:  45    -0.127085268597E+04    0.65557E-01   -0.22832E-01 26489   0.168E-01    0.601E+01
RMM:  46    -0.127105430714E+04   -0.20162E+00   -0.39702E-01 28024   0.358E-01    0.600E+01
RMM:  47    -0.127111314366E+04   -0.58837E-01   -0.20031E-01 26609   0.169E-01    0.601E+01
RMM:  48    -0.127100845191E+04    0.10469E+00   -0.17925E-01 25987   0.159E-01    0.601E+01
RMM:  49    -0.127192076091E+04   -0.91231E+00   -0.65178E-01 28525   0.481E-01    0.612E+01
RMM:  50    -0.127157868088E+04    0.34208E+00   -0.46835E-01 27777   0.327E-01    0.604E+01
RMM:  51    -0.136551948279E+04   -0.93941E+02   -0.67539E+01 29826   0.109E+01    0.194E+02
RMM:  52    -0.129318036370E+04    0.72339E+02   -0.67526E+00 30142   0.295E+00    0.112E+02
RMM:  53    -0.127687350648E+04    0.16307E+02   -0.96744E+00 30014   0.280E+00    0.820E+01
RMM:  54    -0.125661765005E+04    0.20256E+02   -0.84777E+00 30064   0.273E+00    0.444E+01
RMM:  55    -0.124943657259E+04    0.71811E+01   -0.55826E+00 29858   0.202E+00    0.341E+01
RMM:  56    -0.124429638666E+04    0.51402E+01   -0.47417E+00 29760   0.216E+00    0.390E+01
RMM:  57    -0.124048083591E+04    0.38156E+01   -0.37989E+00 29752   0.187E+00    0.245E+01
RMM:  58    -0.124065153482E+04   -0.17070E+00   -0.24957E+00 29726   0.150E+00    0.162E+01
RMM:  59    -0.124039183632E+04    0.25970E+00   -0.11475E+00 29704   0.965E-01    0.155E+01
RMM:  60    -0.124062903682E+04   -0.23720E+00   -0.25778E+00 29704   0.149E+00    0.177E+01
RMM:  61    -0.122994030626E+04    0.10689E+02   -0.17693E+01 29708   0.525E+00    0.151E+01
RMM:  62    -0.122973737108E+04    0.20294E+00   -0.97322E+00 29686   0.326E+00    0.177E+01
RMM:  63    -0.122691831798E+04    0.28191E+01   -0.41953E+00 29690   0.197E+00    0.202E+01
RMM:  64    -0.122548013253E+04    0.14382E+01   -0.16614E+00 29694   0.108E+00    0.214E+01
RMM:  65    -0.122566096453E+04   -0.18083E+00   -0.52908E-01 29399   0.517E-01    0.214E+01
RMM:  66    -0.123310493980E+04   -0.74440E+01   -0.38686E+00 29698   0.241E+00    0.210E+01
RMM:  67    -0.123212415789E+04    0.98078E+00   -0.12367E+00 29710   0.108E+00    0.203E+01
RMM:  68    -0.123087686334E+04    0.12473E+01   -0.87801E-01 29628   0.733E-01    0.202E+01
RMM:  69    -0.122810813749E+04    0.27687E+01   -0.13075E+00 29667   0.991E-01    0.192E+01
RMM:  70    -0.122481355302E+04    0.32946E+01   -0.18046E+00 29696   0.122E+00    0.189E+01
RMM:  71    -0.122679540033E+04   -0.19818E+01   -0.14160E+00 29691   0.136E+00    0.183E+01
RMM:  72    -0.122127223048E+04    0.55232E+01   -0.14643E+00 29669   0.124E+00    0.187E+01
RMM:  73    -0.121345267701E+04    0.78196E+01   -0.22822E+00 29693   0.169E+00    0.206E+01
RMM:  74    -0.121065566334E+04    0.27970E+01   -0.95398E-01 29595   0.972E-01    0.215E+01
RMM:  75    -0.121102655986E+04   -0.37090E+00   -0.20459E-01 29030   0.334E-01    0.214E+01
RMM:  76    -0.121854900871E+04   -0.75224E+01   -0.12847E+01 29712   0.412E+00    0.149E+01
RMM:  77    -0.122098875491E+04   -0.24397E+01   -0.19194E+00 29694   0.149E+00    0.159E+01
RMM:  78    -0.122344381825E+04   -0.24551E+01   -0.12444E+00 29693   0.103E+00    0.155E+01
RMM:  79    -0.122405364705E+04   -0.60983E+00   -0.89095E-01 29599   0.870E-01    0.152E+01
RMM:  80    -0.122467093663E+04   -0.61729E+00   -0.11669E+00 29588   0.100E+00    0.158E+01
RMM:  81    -0.121643532718E+04    0.82356E+01   -0.10045E+01 29710   0.368E+00    0.150E+01
RMM:  82    -0.122025023980E+04   -0.38149E+01   -0.29036E+00 29680   0.192E+00    0.126E+01
RMM:  83    -0.122474399749E+04   -0.44938E+01   -0.20045E+00 29676   0.144E+00    0.106E+01
RMM:  84    -0.122873462729E+04   -0.39906E+01   -0.19798E+00 29667   0.139E+00    0.929E+00
RMM:  85    -0.123040216057E+04   -0.16675E+01   -0.10717E+00 29533   0.948E-01    0.876E+00
RMM:  86    -0.123648158633E+04   -0.60794E+01   -0.35047E+00 29668   0.193E+00    0.690E+00
RMM:  87    -0.123553723201E+04    0.94435E+00   -0.14995E+00 29653   0.119E+00    0.635E+00
RMM:  88    -0.123362027328E+04    0.19170E+01   -0.15799E+00 29647   0.114E+00    0.608E+00
RMM:  89    -0.123162197315E+04    0.19983E+01   -0.13126E+00 29637   0.103E+00    0.640E+00
RMM:  90    -0.123043328830E+04    0.11887E+01   -0.58956E-01 29395   0.624E-01    0.660E+00
RMM:  91    -0.124431310209E+04   -0.13880E+02   -0.80395E+00 29651   0.247E+00    0.657E+00
RMM:  92    -0.124542011219E+04   -0.11070E+01   -0.17684E+00 29642   0.116E+00    0.451E+00
RMM:  93    -0.124599856212E+04   -0.57845E+00   -0.10588E+00 29654   0.855E-01    0.515E+00
RMM:  94    -0.124608181106E+04   -0.83249E-01   -0.33291E-01 28922   0.379E-01    0.511E+00
RMM:  95    -0.124615617912E+04   -0.74368E-01   -0.13153E-01 28724   0.250E-01    0.532E+00
RMM:  96    -0.124639612534E+04   -0.23995E+00   -0.19598E-01 29442   0.437E-01    0.692E+00
RMM:  97    -0.124644512428E+04   -0.48999E-01   -0.78923E-02 28602   0.210E-01    0.703E+00
RMM:  98    -0.124649977390E+04   -0.54650E-01   -0.43902E-02 28046   0.140E-01    0.709E+00
RMM:  99    -0.124651812019E+04   -0.18346E-01   -0.21249E-02 27925   0.927E-02    0.708E+00
RMM: 100    -0.124656528797E+04   -0.47168E-01   -0.20959E-02 28534   0.136E-01    0.712E+00
RMM: 101    -0.124658276788E+04   -0.17480E-01   -0.14302E-01 29495   0.439E-01    0.700E+00
RMM: 102    -0.124661236131E+04   -0.29593E-01   -0.59686E-02 29180   0.266E-01    0.628E+00
RMM: 103    -0.124663381929E+04   -0.21458E-01   -0.12101E-01 29531   0.370E-01    0.494E+00
RMM: 104    -0.124679237428E+04   -0.15855E+00   -0.17016E-01 29670   0.420E-01    0.448E+00
RMM: 105    -0.124682352821E+04   -0.31154E-01   -0.16958E-01 29660   0.383E-01    0.329E+00
RMM: 106    -0.124683390552E+04   -0.10377E-01   -0.18165E-01 29562   0.429E-01    0.324E+00
RMM: 107    -0.124687160989E+04   -0.37704E-01   -0.15923E-01 29417   0.334E-01    0.185E+00
RMM: 108    -0.124697312798E+04   -0.10152E+00   -0.19000E-01 29313   0.281E-01    0.156E+00
RMM: 109    -0.124702496809E+04   -0.51840E-01   -0.11778E-01 29089   0.206E-01    0.133E+00
RMM: 110    -0.124705158274E+04   -0.26615E-01   -0.65564E-02 28901   0.153E-01    0.984E-01
RMM: 111    -0.124708716844E+04   -0.35586E-01   -0.54665E-02 28562   0.147E-01    0.774E-01
RMM: 112    -0.124710950169E+04   -0.22333E-01   -0.51385E-02 28121   0.116E-01    0.708E-01
RMM: 113    -0.124712055968E+04   -0.11058E-01   -0.40424E-02 27687   0.880E-02    0.569E-01
RMM: 114    -0.124712523399E+04   -0.46743E-02   -0.19836E-02 27435   0.691E-02    0.517E-01
RMM: 115    -0.124712864263E+04   -0.34086E-02   -0.11588E-02 27175   0.556E-02    0.433E-01
RMM: 116    -0.124713252099E+04   -0.38784E-02   -0.81369E-03 26910   0.507E-02    0.380E-01
RMM: 117    -0.124713554786E+04   -0.30269E-02   -0.60637E-03 26622   0.431E-02    0.306E-01
RMM: 118    -0.124713881786E+04   -0.32700E-02   -0.48989E-03 26395   0.425E-02    0.246E-01
RMM: 119    -0.124714113165E+04   -0.23138E-02   -0.40804E-03 26273   0.361E-02    0.193E-01
RMM: 120    -0.124714236120E+04   -0.12296E-02   -0.30001E-03 26136   0.326E-02    0.162E-01
RMM: 121    -0.124714457905E+04   -0.22178E-02   -0.40642E-03 26667   0.500E-02    0.260E-01
RMM: 122    -0.124714549305E+04   -0.91400E-03   -0.16621E-03 25461   0.259E-02    0.155E-01
RMM: 123    -0.124714635992E+04   -0.86687E-03   -0.94374E-04 24208   0.188E-02    0.709E-02
RMM: 124    -0.124714685279E+04   -0.49288E-03   -0.73316E-04 23771   0.153E-02    0.299E-02
RMM: 125    -0.124714692101E+04   -0.68210E-04   -0.41448E-04 22612   0.127E-02    0.221E-02
RMM: 126    -0.124714696173E+04   -0.40727E-04   -0.42516E-04 21262   0.110E-02    0.206E-02
RMM: 127    -0.124714698512E+04   -0.23383E-04   -0.23378E-04 20623   0.965E-03    0.198E-02
RMM: 128    -0.124714698205E+04    0.30617E-05   -0.25655E-04 20678   0.922E-03    0.197E-02
RMM: 129    -0.124714690344E+04    0.78616E-04   -0.17557E-04 20634   0.864E-03    0.176E-02
RMM: 130    -0.124714685606E+04    0.47374E-04   -0.16250E-04 20263   0.823E-03    0.160E-02
RMM: 131    -0.124714680911E+04    0.46954E-04   -0.15222E-04 20852   0.843E-03    0.140E-02
RMM: 132    -0.124714679107E+04    0.18037E-04   -0.14255E-04 21414   0.868E-03    0.121E-02
RMM: 133    -0.124714682043E+04   -0.29355E-04   -0.13676E-04 20477   0.811E-03    0.115E-02
RMM: 134    -0.124714690990E+04   -0.89471E-04   -0.10917E-04 20124   0.795E-03    0.131E-02
RMM: 135    -0.124714704569E+04   -0.13579E-03   -0.12353E-04 20897   0.813E-03    0.145E-02
RMM: 136    -0.124714723078E+04   -0.18509E-03   -0.83920E-05 16884   0.658E-03    0.712E-03
RMM: 137    -0.124714753181E+04   -0.30103E-03   -0.67421E-05 16460   0.662E-03    0.796E-03
RMM: 138    -0.124714790741E+04   -0.37560E-03   -0.77737E-05 16969   0.685E-03    0.544E-03
RMM: 139    -0.124714819460E+04   -0.28719E-03   -0.47660E-05 15042   0.610E-03    0.438E-03
RMM: 140    -0.124714858297E+04   -0.38837E-03   -0.51792E-05 14660   0.603E-03    0.920E-03
RMM: 141    -0.124714885331E+04   -0.27034E-03   -0.45593E-05 14105   0.573E-03    0.292E-03
RMM: 142    -0.124714906418E+04   -0.21086E-03   -0.37110E-05 14182   0.568E-03    0.779E-03
RMM: 143    -0.124714917752E+04   -0.11334E-03   -0.27083E-05 13521   0.539E-03    0.636E-03
RMM: 144    -0.124714924803E+04   -0.70515E-04   -0.24495E-05 12680   0.513E-03    0.364E-03
RMM: 145    -0.124714928860E+04   -0.40566E-04   -0.18531E-05 12297   0.491E-03    0.167E-03
RMM: 146    -0.124714930491E+04   -0.16317E-04   -0.15825E-05 11746   0.474E-03    0.182E-03
RMM: 147    -0.124714931266E+04   -0.77448E-05   -0.11753E-05 11390   0.444E-03    0.101E-03
RMM: 148    -0.124714931766E+04   -0.50070E-05   -0.10514E-05 11361   0.439E-03    0.972E-04
RMM: 149    -0.124714931910E+04   -0.14354E-05   -0.77499E-06 11177   0.407E-03    0.894E-04
RMM: 150    -0.124714932194E+04   -0.28376E-05   -0.66857E-06 11152   0.396E-03
   1 F= -.12471493E+04 E0= -.12470517E+04  d E =-.124715E+04  mag=     0.5445
       N       E                     dE             d eps       ncg     rms          rms(c)
DAV:   1    -0.124711511364E+04    0.34205E-01   -0.11516E+00 19512   0.278E+00    0.767E-01
RMM:   2    -0.124714265747E+04   -0.27544E-01   -0.28310E-01 25761   0.103E+00    0.356E-01
RMM:   3    -0.124715023122E+04   -0.75737E-02   -0.61956E-02 24821   0.244E-01    0.226E-01
RMM:   4    -0.124715074008E+04   -0.50886E-03   -0.62856E-03 24583   0.908E-02    0.265E-01
RMM:   5    -0.124715082980E+04   -0.89727E-04   -0.20795E-03 25006   0.424E-02    0.208E-01
RMM:   6    -0.124715087008E+04   -0.40279E-04   -0.41933E-04 24141   0.230E-02    0.240E-01
RMM:   7    -0.124715067476E+04    0.19532E-03   -0.33874E-04 22436   0.242E-02    0.140E-01
RMM:   8    -0.124715059156E+04    0.83206E-04   -0.47235E-04 22881   0.275E-02    0.105E-01
RMM:   9    -0.124715046595E+04    0.12561E-03   -0.14579E-04 22605   0.159E-02    0.578E-02
RMM:  10    -0.124715044413E+04    0.21822E-04   -0.34439E-05 20188   0.902E-03    0.412E-02
RMM:  11    -0.124715043986E+04    0.42645E-05   -0.32013E-05 19840   0.940E-03    0.306E-02
RMM:  12    -0.124715043908E+04    0.77614E-06   -0.29653E-05 20130   0.724E-03    0.126E-02
RMM:  13    -0.124715044910E+04   -0.10012E-04   -0.94145E-06 16216   0.675E-03    0.672E-03
RMM:  14    -0.124715047225E+04   -0.23149E-04   -0.56400E-06 13085   0.554E-03    0.526E-03
RMM:  15    -0.124715049472E+04   -0.22473E-04   -0.29881E-06 11503   0.422E-03    0.656E-03
RMM:  16    -0.124715052007E+04   -0.25354E-04   -0.25488E-06 10838   0.411E-03    0.419E-03
RMM:  17    -0.124715054511E+04   -0.25037E-04   -0.15758E-06 10204   0.367E-03    0.323E-03
RMM:  18    -0.124715057374E+04   -0.28630E-04   -0.17005E-06 10039   0.369E-03    0.311E-03
RMM:  19    -0.124715063781E+04   -0.64073E-04   -0.31738E-06 10781   0.359E-03    0.266E-03
RMM:  20    -0.124715068571E+04   -0.47897E-04   -0.31893E-06 10664   0.387E-03    0.214E-03
RMM:  21    -0.124715071969E+04   -0.33982E-04   -0.17395E-06 10419   0.357E-03    0.211E-03
RMM:  22    -0.124715075605E+04   -0.36361E-04   -0.18947E-06 10569   0.338E-03    0.172E-03
RMM:  23    -0.124715079377E+04   -0.37721E-04   -0.21729E-06 10542   0.309E-03    0.129E-03
RMM:  24    -0.124715082719E+04   -0.33416E-04   -0.19389E-06 10543   0.321E-03    0.103E-03
RMM:  25    -0.124715085225E+04   -0.25061E-04   -0.16550E-06 10425   0.300E-03    0.870E-04
RMM:  26    -0.124715086106E+04   -0.88074E-05   -0.87860E-07 10015   0.313E-03    0.858E-04
RMM:  27    -0.124715087018E+04   -0.91175E-05   -0.11676E-06  9968   0.278E-03    0.835E-04
RMM:  28    -0.124715087324E+04   -0.30600E-05   -0.58250E-07  9792   0.280E-03    0.748E-04
RMM:  29    -0.124715087688E+04   -0.36412E-05   -0.38961E-07  9731   0.250E-03    0.946E-04
RMM:  30    -0.124715088165E+04   -0.47722E-05   -0.43321E-07  9797   0.265E-03    0.736E-04
RMM:  31    -0.124715088595E+04   -0.42998E-05   -0.47793E-07  9692   0.226E-03    0.692E-04
RMM:  32    -0.124715088813E+04   -0.21822E-05   -0.29801E-07  9595   0.212E-03    0.649E-04
RMM:  33    -0.124715088981E+04   -0.16778E-05   -0.25070E-07  9320   0.185E-03    0.649E-04
RMM:  34    -0.124715089121E+04   -0.13956E-05   -0.22741E-07  9303   0.188E-03    0.643E-04
RMM:  35    -0.124715089286E+04   -0.16562E-05   -0.17384E-07  9010   0.166E-03    0.637E-04
RMM:  36    -0.124715089460E+04   -0.17360E-05   -0.22863E-07  9296   0.185E-03    0.643E-04
RMM:  37    -0.124715089523E+04   -0.63691E-06   -0.17938E-07  9237   0.178E-03
   2 F= -.12471509E+04 E0= -.12470533E+04  d E =-.157330E-02  mag=     0.5165
       N       E                     dE             d eps       ncg     rms          rms(c)
DAV:   1    -0.124715083633E+04    0.58264E-04   -0.19700E-03 18656   0.117E-01    0.324E-02
RMM:   2    -0.124715088177E+04   -0.45433E-04   -0.50463E-04 23519   0.419E-02    0.151E-02
RMM:   3    -0.124715089853E+04   -0.16762E-04   -0.10534E-04 19821   0.105E-02    0.112E-02
RMM:   4    -0.124715090014E+04   -0.16140E-05   -0.13845E-05 15694   0.770E-03    0.201E-02
RMM:   5    -0.124715089915E+04    0.99489E-06   -0.31189E-06 10695   0.429E-03    0.988E-03
RMM:   6    -0.124715089929E+04   -0.14075E-06   -0.71264E-07  9608   0.338E-03
   3 F= -.12471509E+04 E0= -.12470533E+04  d E =-.157735E-02  mag=     0.5165
       N       E                     dE             d eps       ncg     rms          rms(c)
DAV:   1    -0.124714078893E+04    0.10110E-01   -0.32854E-01 19264   0.138E+00    0.380E-01
RMM:   2    -0.124715020446E+04   -0.94155E-02   -0.91029E-02 26177   0.519E-01    0.497E-01
RMM:   3    -0.124715328842E+04   -0.30840E-02   -0.17819E-02 24024   0.144E-01    0.762E-01
RMM:   4    -0.124715145059E+04    0.18378E-02   -0.20484E-03 25506   0.697E-02    0.158E-01
RMM:   5    -0.124715151342E+04   -0.62827E-04   -0.59876E-04 23578   0.280E-02    0.111E-01
RMM:   6    -0.124715148958E+04    0.23839E-04   -0.18576E-04 22043   0.156E-02    0.923E-02
RMM:   7    -0.124715145853E+04    0.31048E-04   -0.15518E-04 21929   0.146E-02    0.639E-02
RMM:   8    -0.124715147241E+04   -0.13878E-04   -0.18172E-04 23158   0.169E-02    0.671E-02
RMM:   9    -0.124715145347E+04    0.18941E-04   -0.37197E-05 20296   0.827E-03    0.105E-02
RMM:  10    -0.124715144999E+04    0.34797E-05   -0.17670E-05 17110   0.682E-03    0.120E-02
RMM:  11    -0.124715144245E+04    0.75395E-05   -0.85472E-06 14306   0.553E-03    0.777E-03
RMM:  12    -0.124715143385E+04    0.85991E-05   -0.59413E-06 13297   0.469E-03    0.326E-03
RMM:  13    -0.124715143408E+04   -0.23027E-06   -0.31764E-06 11741   0.495E-03
   4 F= -.12471514E+04 E0= -.12470538E+04  d E =-.534792E-03  mag=     0.5126
       N       E                     dE             d eps       ncg     rms          rms(c)
DAV:   1    -0.124714855168E+04    0.28822E-02   -0.90868E-02 19272   0.726E-01    0.200E-01
RMM:   2    -0.124715114951E+04   -0.25978E-02   -0.25320E-02 25325   0.276E-01    0.249E-01
RMM:   3    -0.124715204417E+04   -0.89466E-03   -0.49424E-03 23700   0.758E-02    0.407E-01
RMM:   4    -0.124715151935E+04    0.52482E-03   -0.57981E-04 25019   0.374E-02    0.813E-02
RMM:   5    -0.124715154340E+04   -0.24052E-04   -0.17406E-04 22237   0.156E-02    0.599E-02
RMM:   6    -0.124715153685E+04    0.65472E-05   -0.54575E-05 19728   0.102E-02    0.499E-02
RMM:   7    -0.124715152137E+04    0.15482E-04   -0.51161E-05 20348   0.981E-03    0.329E-02
RMM:   8    -0.124715151809E+04    0.32845E-05   -0.52686E-05 21407   0.102E-02    0.328E-02
RMM:   9    -0.124715151277E+04    0.53204E-05   -0.11444E-05 16260   0.603E-03    0.626E-03
RMM:  10    -0.124715151030E+04    0.24645E-05   -0.51138E-06 12742   0.530E-03    0.592E-03
RMM:  11    -0.124715151056E+04   -0.26217E-06   -0.29641E-06 11801   0.425E-03
   5 F= -.12471515E+04 E0= -.12470538E+04  d E =-.611276E-03  mag=     0.5086
       N       E                     dE             d eps       ncg     rms          rms(c)
DAV:   1    -0.124714780951E+04    0.37008E-02   -0.15200E-01 18992   0.803E-01    0.231E-01
RMM:   2    -0.124715110754E+04   -0.32980E-02   -0.33364E-02 25124   0.317E-01    0.174E-01
RMM:   3    -0.124715225452E+04   -0.11470E-02   -0.62674E-03 24830   0.809E-02    0.373E-01
RMM:   4    -0.124715179485E+04    0.45966E-03   -0.73103E-04 25329   0.391E-02    0.108E-01
RMM:   5    -0.124715181665E+04   -0.21800E-04   -0.22617E-04 22881   0.163E-02    0.657E-02
RMM:   6    -0.124715181378E+04    0.28773E-05   -0.73235E-05 20642   0.107E-02    0.480E-02
RMM:   7    -0.124715181994E+04   -0.61610E-05   -0.94072E-05 21425   0.120E-02    0.221E-02
RMM:   8    -0.124715183834E+04   -0.18400E-04   -0.35109E-05 19340   0.817E-03    0.124E-02
RMM:   9    -0.124715184635E+04   -0.80157E-05   -0.12540E-05 16272   0.728E-03    0.922E-03
RMM:  10    -0.124715185311E+04   -0.67563E-05   -0.81184E-06 13900   0.555E-03    0.648E-03
RMM:  11    -0.124715185883E+04   -0.57149E-05   -0.48523E-06 12296   0.382E-03    0.714E-03
RMM:  12    -0.124715186141E+04   -0.25863E-05   -0.35110E-06 11048   0.373E-03    0.250E-03
RMM:  13    -0.124715186373E+04   -0.23138E-05   -0.18636E-06 10432   0.339E-03    0.125E-03
RMM:  14    -0.124715186927E+04   -0.55484E-05   -0.18174E-06 10243   0.339E-03    0.158E-03
RMM:  15    -0.124715187097E+04   -0.16969E-05   -0.86684E-07  9882   0.321E-03    0.173E-03
RMM:  16    -0.124715187211E+04   -0.11364E-05   -0.49877E-07  9606   0.322E-03    0.111E-03
RMM:  17    -0.124715187333E+04   -0.12220E-05   -0.44724E-07  9632   0.307E-03    0.753E-04
RMM:  18    -0.124715187439E+04   -0.10608E-05   -0.34725E-07  9394   0.287E-03    0.718E-04
RMM:  19    -0.124715187526E+04   -0.87463E-06   -0.33855E-07  9279   0.253E-03
   6 F= -.12471519E+04 E0= -.12470542E+04  d E =-.364700E-03  mag=     0.5073
       N       E                     dE             d eps       ncg     rms          rms(c)
DAV:   1    -0.124715181504E+04    0.59351E-04   -0.29424E-03 18712   0.112E-01    0.322E-02
RMM:   2    -0.124715187900E+04   -0.63964E-04   -0.65367E-04 23250   0.443E-02    0.250E-02
RMM:   3    -0.124715190272E+04   -0.23712E-04   -0.12110E-04 21116   0.117E-02    0.540E-02
RMM:   4    -0.124715189242E+04    0.10300E-04   -0.15092E-05 17476   0.750E-03    0.143E-02
RMM:   5    -0.124715189343E+04   -0.10143E-05   -0.55416E-06 12758   0.507E-03    0.932E-03
RMM:   6    -0.124715189361E+04   -0.18440E-06   -0.18593E-06 10063   0.414E-03
   7 F= -.12471519E+04 E0= -.12470543E+04  d E =-.383050E-03  mag=     0.5073
       N       E                     dE             d eps       ncg     rms          rms(c)
DAV:   1    -0.124715160680E+04    0.28663E-03   -0.11634E-02 19096   0.225E-01    0.627E-02
RMM:   2    -0.124715185843E+04   -0.25163E-03   -0.25805E-03 23768   0.879E-02    0.440E-02
RMM:   3    -0.124715194234E+04   -0.83908E-04   -0.47882E-04 22496   0.225E-02    0.940E-02
RMM:   4    -0.124715191221E+04    0.30125E-04   -0.56177E-05 21552   0.119E-02    0.300E-02
RMM:   5    -0.124715191409E+04   -0.18708E-05   -0.18549E-05 17507   0.678E-03    0.187E-02
RMM:   6    -0.124715191371E+04    0.37556E-06   -0.64404E-06 13962   0.583E-03
   8 F= -.12471519E+04 E0= -.12470543E+04  d E =-.403146E-03  mag=     0.5075
       N       E                     dE             d eps       ncg     rms          rms(c)
DAV:   1    -0.124715022669E+04    0.16874E-02   -0.11196E-01 18376   0.609E-01    0.140E-01
RMM:   2    -0.124715182775E+04   -0.16011E-02   -0.16422E-02 24370   0.232E-01    0.121E-01
RMM:   3    -0.124715227354E+04   -0.44579E-03   -0.26989E-03 24269   0.583E-02    0.246E-01
RMM:   4    -0.124715213289E+04    0.14065E-03   -0.45813E-04 24577   0.293E-02    0.817E-02
RMM:   5    -0.124715213208E+04    0.80606E-06   -0.16672E-04 22978   0.139E-02    0.405E-02
RMM:   6    -0.124715213022E+04    0.18646E-05   -0.60941E-05 20299   0.905E-03    0.320E-02
RMM:   7    -0.124715213310E+04   -0.28785E-05   -0.50945E-05 20418   0.927E-03    0.237E-02
RMM:   8    -0.124715214265E+04   -0.95505E-05   -0.33793E-05 19929   0.796E-03    0.247E-02
RMM:   9    -0.124715214516E+04   -0.25143E-05   -0.16132E-05 17325   0.685E-03    0.127E-02
RMM:  10    -0.124715214625E+04   -0.10885E-05   -0.10020E-05 14859   0.563E-03    0.612E-03
RMM:  11    -0.124715214654E+04   -0.28987E-06   -0.60109E-06 12333   0.421E-03
   9 F= -.12471521E+04 E0= -.12470545E+04  d E =-.232830E-03  mag=     0.5077
       N       E                     dE             d eps       ncg     rms          rms(c)
DAV:   1    -0.124714917611E+04    0.29701E-02   -0.18483E-01 18376   0.781E-01    0.183E-01
RMM:   2    -0.124715179941E+04   -0.26233E-02   -0.27109E-02 24489   0.297E-01    0.129E-01
RMM:   3    -0.124715243567E+04   -0.63626E-03   -0.43335E-03 24335   0.732E-02    0.251E-01
RMM:   4    -0.124715235005E+04    0.85623E-04   -0.75373E-04 24889   0.358E-02    0.111E-01
RMM:   5    -0.124715233317E+04    0.16875E-04   -0.25986E-04 23727   0.172E-02    0.538E-02
RMM:   6    -0.124715233091E+04    0.22650E-05   -0.99523E-05 21563   0.105E-02    0.409E-02
RMM:   7    -0.124715232997E+04    0.93505E-06   -0.84103E-05 21296   0.113E-02    0.319E-02
RMM:   8    -0.124715233816E+04   -0.81891E-05   -0.52636E-05 21160   0.928E-03    0.308E-02
RMM:   9    -0.124715233653E+04    0.16320E-05   -0.27278E-05 18819   0.780E-03    0.161E-02
RMM:  10    -0.124715233191E+04    0.46185E-05   -0.16279E-05 16920   0.633E-03    0.720E-03
RMM:  11    -0.124715232843E+04    0.34854E-05   -0.10235E-05 14171   0.473E-03    0.276E-03
RMM:  12    -0.124715232709E+04    0.13390E-05   -0.62339E-06 12225   0.403E-03    0.205E-03
RMM:  13    -0.124715232697E+04    0.12340E-06   -0.38759E-06 11388   0.373E-03
  10 F= -.12471523E+04 E0= -.12470547E+04  d E =-.413255E-03  mag=     0.5074
       N       E                     dE             d eps       ncg     rms          rms(c)
DAV:   1    -0.124713975488E+04    0.12572E-01   -0.73934E-01 18616   0.156E+00    0.364E-01
RMM:   2    -0.124715025675E+04   -0.10502E-01   -0.10793E-01 24707   0.594E-01    0.258E-01
RMM:   3    -0.124715274882E+04   -0.24921E-02   -0.17638E-02 24942   0.146E-01    0.488E-01
RMM:   4    -0.124715248341E+04    0.26542E-03   -0.29333E-03 25862   0.704E-02    0.227E-01
RMM:   5    -0.124715239308E+04    0.90328E-04   -0.10173E-03 24944   0.329E-02    0.109E-01
RMM:   6    -0.124715237987E+04    0.13211E-04   -0.38112E-04 23391   0.184E-02    0.821E-02
RMM:   7    -0.124715235812E+04    0.21751E-04   -0.31854E-04 22792   0.191E-02    0.638E-02
RMM:   8    -0.124715238375E+04   -0.25630E-04   -0.20201E-04 23156   0.154E-02    0.627E-02
RMM:   9    -0.124715236906E+04    0.14686E-04   -0.95568E-05 22241   0.109E-02    0.314E-02
RMM:  10    -0.124715235561E+04    0.13449E-04   -0.57044E-05 20232   0.870E-03    0.141E-02
RMM:  11    -0.124715234774E+04    0.78712E-05   -0.32435E-05 19426   0.754E-03    0.649E-03
RMM:  12    -0.124715234555E+04    0.21944E-05   -0.20703E-05 16312   0.569E-03    0.465E-03
RMM:  13    -0.124715234681E+04   -0.12681E-05   -0.13740E-05 14392   0.497E-03    0.346E-03
RMM:  14    -0.124715234877E+04   -0.19534E-05   -0.98873E-06 13614   0.468E-03    0.254E-03
RMM:  15    -0.124715235185E+04   -0.30810E-05   -0.71445E-06 12924   0.453E-03    0.204E-03
RMM:  16    -0.124715235680E+04   -0.49470E-05   -0.52827E-06 12218   0.397E-03    0.220E-03
RMM:  17    -0.124715236627E+04   -0.94748E-05   -0.48910E-06 11972   0.411E-03    0.129E-03
RMM:  18    -0.124715237303E+04   -0.67584E-05   -0.32949E-06 11504   0.375E-03    0.146E-03
RMM:  19    -0.124715237983E+04   -0.68046E-05   -0.26991E-06 11474   0.389E-03    0.885E-04
RMM:  20    -0.124715238550E+04   -0.56659E-05   -0.18918E-06 11224   0.336E-03    0.846E-04
RMM:  21    -0.124715239112E+04   -0.56191E-05   -0.15221E-06 10857   0.312E-03    0.783E-04
RMM:  22    -0.124715239985E+04   -0.87365E-05   -0.14750E-06 10651   0.288E-03    0.740E-04
RMM:  23    -0.124715240598E+04   -0.61255E-05   -0.12563E-06 10638   0.294E-03    0.696E-04
RMM:  24    -0.124715241199E+04   -0.60138E-05   -0.12799E-06 10263   0.265E-03    0.692E-04
RMM:  25    -0.124715241621E+04   -0.42142E-05   -0.11064E-06 10334   0.296E-03    0.674E-04
RMM:  26    -0.124715241921E+04   -0.29996E-05   -0.98597E-07 10337   0.294E-03    0.660E-04
RMM:  27    -0.124715242057E+04   -0.13637E-05   -0.73210E-07  9923   0.269E-03    0.645E-04
RMM:  28    -0.124715242183E+04   -0.12616E-05   -0.61866E-07  9677   0.258E-03    0.648E-04
RMM:  29    -0.124715242248E+04   -0.64378E-06   -0.54023E-07  9533   0.258E-03
  11 F= -.12471524E+04 E0= -.12470548E+04  d E =-.508767E-03  mag=     0.5050
       N       E                     dE             d eps       ncg     rms          rms(c)
DAV:   1    -0.124715079303E+04    0.16288E-02   -0.97052E-02 18296   0.567E-01    0.132E-01
RMM:   2    -0.124715215904E+04   -0.13660E-02   -0.14170E-02 24335   0.216E-01    0.944E-02
RMM:   3    -0.124715250220E+04   -0.34315E-03   -0.23171E-03 23791   0.533E-02    0.184E-01
RMM:   4    -0.124715245359E+04    0.48603E-04   -0.38063E-04 23991   0.264E-02    0.834E-02
RMM:   5    -0.124715243956E+04    0.14037E-04   -0.12674E-04 22568   0.129E-02    0.385E-02
RMM:   6    -0.124715243710E+04    0.24548E-05   -0.45213E-05 19514   0.831E-03    0.296E-02
RMM:   7    -0.124715243451E+04    0.25927E-05   -0.39098E-05 19890   0.905E-03    0.227E-02
RMM:   8    -0.124715243909E+04   -0.45771E-05   -0.23601E-05 18980   0.699E-03    0.219E-02
RMM:   9    -0.124715244094E+04   -0.18529E-05   -0.11007E-05 15999   0.658E-03    0.106E-02
RMM:  10    -0.124715244137E+04   -0.42806E-06   -0.63712E-06 13342   0.517E-03
  12 F= -.12471524E+04 E0= -.12470548E+04  d E =-.527657E-03  mag=     0.5046
       N       E                     dE             d eps       ncg     rms          rms(c)
DAV:   1    -0.124715050976E+04    0.19312E-02   -0.11337E-01 18488   0.626E-01    0.154E-01
RMM:   2    -0.124715222267E+04   -0.17129E-02   -0.17684E-02 24559   0.242E-01    0.849E-02
RMM:   3    -0.124715255212E+04   -0.32945E-03   -0.28670E-03 23187   0.579E-02    0.644E-02
RMM:   4    -0.124715258023E+04   -0.28111E-04   -0.34165E-04 23743   0.248E-02    0.722E-02
RMM:   5    -0.124715258029E+04   -0.57858E-07   -0.14103E-04 22816   0.125E-02    0.456E-02
RMM:   6    -0.124715257532E+04    0.49701E-05   -0.37496E-05 19425   0.772E-03    0.363E-02
RMM:   7    -0.124715257664E+04   -0.13219E-05   -0.58358E-05 21128   0.105E-02    0.392E-02
RMM:   8    -0.124715257949E+04   -0.28455E-05   -0.22747E-05 18719   0.669E-03    0.129E-02
RMM:   9    -0.124715258303E+04   -0.35408E-05   -0.90874E-06 15181   0.654E-03    0.799E-03
RMM:  10    -0.124715258600E+04   -0.29692E-05   -0.64534E-06 13440   0.532E-03    0.496E-03
RMM:  11    -0.124715258737E+04   -0.13708E-05   -0.35370E-06 11460   0.468E-03    0.287E-03
RMM:  12    -0.124715258822E+04   -0.84564E-06   -0.22783E-06 10455   0.383E-03
  13 F= -.12471526E+04 E0= -.12470549E+04  d E =-.146849E-03  mag=     0.5049
       N       E                     dE             d eps       ncg     rms          rms(c)
DAV:   1    -0.124714451103E+04    0.80763E-02   -0.44566E-01 18536   0.124E+00    0.306E-01
RMM:   2    -0.124715127583E+04   -0.67648E-02   -0.69506E-02 24875   0.481E-01    0.168E-01
RMM:   3    -0.124715258522E+04   -0.13094E-02   -0.11441E-02 23760   0.115E-01    0.127E-01
RMM:   4    -0.124715270299E+04   -0.11777E-03   -0.13083E-03 24814   0.480E-02    0.148E-01
RMM:   5    -0.124715270125E+04    0.17423E-05   -0.60132E-04 24269   0.234E-02    0.871E-02
RMM:   6    -0.124715268407E+04    0.17180E-04   -0.16306E-04 22660   0.132E-02    0.721E-02
RMM:   7    -0.124715267371E+04    0.10367E-04   -0.23904E-04 22887   0.186E-02    0.773E-02
RMM:   8    -0.124715266996E+04    0.37504E-05   -0.96583E-05 21742   0.110E-02    0.250E-02
RMM:   9    -0.124715268088E+04   -0.10922E-04   -0.39040E-05 19917   0.937E-03    0.181E-02
RMM:  10    -0.124715268900E+04   -0.81189E-05   -0.30765E-05 19429   0.754E-03    0.110E-02
RMM:  11    -0.124715269624E+04   -0.72394E-05   -0.16100E-05 17611   0.626E-03    0.470E-03
RMM:  12    -0.124715269885E+04   -0.26098E-05   -0.11076E-05 14103   0.498E-03    0.321E-03
RMM:  13    -0.124715270369E+04   -0.48474E-05   -0.67603E-06 12951   0.431E-03    0.276E-03
RMM:  14    -0.124715270482E+04   -0.11296E-05   -0.47800E-06 12087   0.417E-03    0.289E-03
RMM:  15    -0.124715270564E+04   -0.81456E-06   -0.35490E-06 11468   0.389E-03
  14 F= -.12471527E+04 E0= -.12470550E+04  d E =-.264270E-03  mag=     0.5045
       N       E                     dE             d eps       ncg     rms          rms(c)
DAV:   1    -0.124715028049E+04    0.24243E-02   -0.86984E-02 19128   0.703E-01    0.186E-01
RMM:   2    -0.124715238049E+04   -0.21000E-02   -0.21113E-02 24934   0.276E-01    0.130E-01
RMM:   3    -0.124715309479E+04   -0.71430E-03   -0.37893E-03 24450   0.657E-02    0.323E-01
RMM:   4    -0.124715279717E+04    0.29762E-03   -0.48923E-04 24490   0.321E-02    0.754E-02
RMM:   5    -0.124715281176E+04   -0.14591E-04   -0.12988E-04 22327   0.138E-02    0.503E-02
RMM:   6    -0.124715281275E+04   -0.98837E-06   -0.41481E-05 19133   0.861E-03    0.404E-02
RMM:   7    -0.124715280833E+04    0.44232E-05   -0.40228E-05 20093   0.949E-03    0.354E-02
RMM:   8    -0.124715280822E+04    0.10349E-06   -0.26314E-05 19470   0.779E-03    0.245E-02
RMM:   9    -0.124715281120E+04   -0.29744E-05   -0.11047E-05 16355   0.660E-03    0.103E-02
RMM:  10    -0.124715281213E+04   -0.93202E-06   -0.61029E-06 12762   0.506E-03
  15 F= -.12471528E+04 E0= -.12470551E+04  d E =-.106491E-03  mag=     0.5045
       N       E                     dE             d eps       ncg     rms          rms(c)
DAV:   1    -0.124714019830E+04    0.12613E-01   -0.43693E-01 19288   0.158E+00    0.416E-01
RMM:   2    -0.124715069163E+04   -0.10493E-01   -0.10544E-01 25236   0.618E-01    0.278E-01
RMM:   3    -0.124715401662E+04   -0.33250E-02   -0.18993E-02 25182   0.145E-01    0.666E-01
RMM:   4    -0.124715285734E+04    0.11593E-02   -0.23688E-03 25575   0.690E-02    0.179E-01
RMM:   5    -0.124715286288E+04   -0.55470E-05   -0.61754E-04 24031   0.287E-02    0.114E-01
RMM:   6    -0.124715284838E+04    0.14504E-04   -0.18878E-04 22453   0.148E-02    0.903E-02
RMM:   7    -0.124715281982E+04    0.28564E-04   -0.17632E-04 22096   0.169E-02    0.722E-02
RMM:   8    -0.124715283436E+04   -0.14540E-04   -0.12587E-04 22587   0.143E-02    0.603E-02
RMM:   9    -0.124715282613E+04    0.82254E-05   -0.45191E-05 20626   0.853E-03    0.201E-02
RMM:  10    -0.124715282777E+04   -0.16436E-05   -0.22690E-05 17432   0.718E-03    0.962E-03
RMM:  11    -0.124715282790E+04   -0.12992E-06   -0.11762E-05 15549   0.602E-03    0.564E-03
RMM:  12    -0.124715282756E+04    0.34831E-06   -0.80594E-06 13611   0.465E-03
  16 F= -.12471528E+04 E0= -.12470551E+04  d E =-.121918E-03  mag=     0.5049
       N       E                     dE             d eps       ncg     rms          rms(c)
DAV:   1    -0.124715140435E+04    0.14236E-02   -0.49947E-02 19232   0.534E-01    0.141E-01
RMM:   2    -0.124715259970E+04   -0.11953E-02   -0.12084E-02 24644   0.208E-01    0.911E-02
RMM:   3    -0.124715296518E+04   -0.36548E-03   -0.21509E-03 23779   0.492E-02    0.216E-01
RMM:   4    -0.124715285058E+04    0.11460E-03   -0.26821E-04 23473   0.238E-02    0.626E-02
RMM:   5    -0.124715284720E+04    0.33785E-05   -0.62372E-05 20663   0.110E-02    0.378E-02
RMM:   6    -0.124715284606E+04    0.11428E-05   -0.17763E-05 17284   0.714E-03    0.304E-02
RMM:   7    -0.124715284372E+04    0.23394E-05   -0.20982E-05 18045   0.746E-03    0.236E-02
RMM:   8    -0.124715284777E+04   -0.40475E-05   -0.11422E-05 15779   0.663E-03    0.163E-02
RMM:   9    -0.124715285093E+04   -0.31627E-05   -0.44009E-06 12784   0.625E-03    0.610E-03
RMM:  10    -0.124715285402E+04   -0.30956E-05   -0.19104E-06 10151   0.432E-03    0.272E-03
RMM:  11    -0.124715285708E+04   -0.30588E-05   -0.89709E-07  9378   0.385E-03    0.182E-03
RMM:  12    -0.124715285929E+04   -0.22114E-05   -0.53306E-07  9146   0.329E-03    0.127E-03
RMM:  13    -0.124715286058E+04   -0.12876E-05   -0.37517E-07  9118   0.309E-03    0.910E-04
RMM:  14    -0.124715286145E+04   -0.87218E-06   -0.28654E-07  8973   0.280E-03
  17 F= -.12471529E+04 E0= -.12470552E+04  d E =-.155817E-03  mag=     0.5041
       N       E                     dE             d eps       ncg     rms          rms(c)
DAV:   1    -0.124715026916E+04    0.25914E-02   -0.10529E-01 18360   0.678E-01    0.178E-01
RMM:   2    -0.124715246295E+04   -0.21938E-02   -0.22622E-02 24376   0.270E-01    0.102E-01
RMM:   3    -0.124715297011E+04   -0.50716E-03   -0.38946E-03 23565   0.634E-02    0.173E-01
RMM:   4    -0.124715295783E+04    0.12285E-04   -0.46668E-04 23893   0.289E-02    0.943E-02
RMM:   5    -0.124715293727E+04    0.20556E-04   -0.13113E-04 22397   0.139E-02    0.574E-02
RMM:   6    -0.124715293462E+04    0.26504E-05   -0.45022E-05 19302   0.852E-03    0.432E-02
RMM:   7    -0.124715293161E+04    0.30064E-05   -0.53029E-05 20535   0.107E-02    0.307E-02
RMM:   8    -0.124715293777E+04   -0.61613E-05   -0.25352E-05 19290   0.724E-03    0.253E-02
RMM:   9    -0.124715294191E+04   -0.41372E-05   -0.10141E-05 16061   0.666E-03    0.951E-03
RMM:  10    -0.124715294262E+04   -0.70757E-06   -0.59272E-06 12860   0.487E-03
  18 F= -.12471529E+04 E0= -.12470553E+04  d E =-.811657E-04  mag=     0.5040
