 Entering Gaussian System, Link 0=g16
 Input=one.gjf
 Output=one.log
 Initial command:
 /opt/ohpc/pub/apps/gaussian/avx2/g16/l1.exe "/home/yuc/calculation/H2_catecholate/O-Mg-O_H2/H2-cate_new_geo_opt/one_H2/SP/Gau-1388890.inp" -scrdir="/home/yuc/calculation/H2_catecholate/O-Mg-O_H2/H2-cate_new_geo_opt/one_H2/SP/"
 Default CPUs for threads: 16-31,80-95
 Default is to use a total of  32 processors:
                               32 via shared-memory
                                1 via Linda
 Entering Link 1 = /opt/ohpc/pub/apps/gaussian/avx2/g16/l1.exe PID=   1388891.
  
 Copyright (c) 1988-2017, Gaussian, Inc.  All Rights Reserved.
  
 This is part of the Gaussian(R) 16 program.  It is based on
 the Gaussian(R) 09 system (copyright 2009, Gaussian, Inc.),
 the Gaussian(R) 03 system (copyright 2003, Gaussian, Inc.),
 the Gaussian(R) 98 system (copyright 1998, Gaussian, Inc.),
 the Gaussian(R) 94 system (copyright 1995, Gaussian, Inc.),
 the Gaussian 92(TM) system (copyright 1992, Gaussian, Inc.),
 the Gaussian 90(TM) system (copyright 1990, Gaussian, Inc.),
 the Gaussian 88(TM) system (copyright 1988, Gaussian, Inc.),
 the Gaussian 86(TM) system (copyright 1986, Carnegie Mellon
 University), and the Gaussian 82(TM) system (copyright 1983,
 Carnegie Mellon University). Gaussian is a federally registered
 trademark of Gaussian, Inc.
  
 This software contains proprietary and confidential information,
 including trade secrets, belonging to Gaussian, Inc.
  
 This software is provided under written license and may be
 used, copied, transmitted, or stored only in accord with that
 written license.
  
 The following legend is applicable only to US Government
 contracts under FAR:
  
                    RESTRICTED RIGHTS LEGEND
  
 Use, reproduction and disclosure by the US Government is
 subject to restrictions as set forth in subparagraphs (a)
 and (c) of the Commercial Computer Software - Restricted
 Rights clause in FAR 52.227-19.
  
 Gaussian, Inc.
 340 Quinnipiac St., Bldg. 40, Wallingford CT 06492
  
  
 ---------------------------------------------------------------
 Warning -- This program may not be used in any manner that
 competes with the business of Gaussian, Inc. or will provide
 assistance to any competitor of Gaussian, Inc.  The licensee
 of this program is prohibited from giving any competitor of
 Gaussian, Inc. access to this program.  By using this program,
 the user acknowledges that Gaussian, Inc. is engaged in the
 business of creating and licensing software in the field of
 computational chemistry and represents and warrants to the
 licensee that it is not a competitor of Gaussian, Inc. and that
 it will not use this program in any manner prohibited above.
 ---------------------------------------------------------------
  

 Cite this work as:
 Gaussian 16, Revision B.01,
 M. J. Frisch, G. W. Trucks, H. B. Schlegel, G. E. Scuseria, 
 M. A. Robb, J. R. Cheeseman, G. Scalmani, V. Barone, 
 G. A. Petersson, H. Nakatsuji, X. Li, M. Caricato, A. V. Marenich, 
 J. Bloino, B. G. Janesko, R. Gomperts, B. Mennucci, H. P. Hratchian, 
 J. V. Ortiz, A. F. Izmaylov, J. L. Sonnenberg, D. Williams-Young, 
 F. Ding, F. Lipparini, F. Egidi, J. Goings, B. Peng, A. Petrone, 
 T. Henderson, D. Ranasinghe, V. G. Zakrzewski, J. Gao, N. Rega, 
 G. Zheng, W. Liang, M. Hada, M. Ehara, K. Toyota, R. Fukuda, 
 J. Hasegawa, M. Ishida, T. Nakajima, Y. Honda, O. Kitao, H. Nakai, 
 T. Vreven, K. Throssell, J. A. Montgomery, Jr., J. E. Peralta, 
 F. Ogliaro, M. J. Bearpark, J. J. Heyd, E. N. Brothers, K. N. Kudin, 
 V. N. Staroverov, T. A. Keith, R. Kobayashi, J. Normand, 
 K. Raghavachari, A. P. Rendell, J. C. Burant, S. S. Iyengar, 
 J. Tomasi, M. Cossi, J. M. Millam, M. Klene, C. Adamo, R. Cammi, 
 J. W. Ochterski, R. L. Martin, K. Morokuma, O. Farkas, 
 J. B. Foresman, and D. J. Fox, Gaussian, Inc., Wallingford CT, 2016.
 
 ******************************************
 Gaussian 16:  ES64L-G16RevB.01 20-Dec-2017
                15-Sep-2024 
 ******************************************
 SetSPE:  set environment variable "MP_BIND" = "yes"
 SetSPE:  set environment variable "MP_BLIST" = "16,17,18,19,20,21,22,23,24,25,26,27,28,29,30,31,80,81,82,83,84,85,86,87,88,89,90,91,92,93,94,95"
 ---------------------------------
 # MP2/6-311+g(d,p) counterpoise=2
 ---------------------------------
 1/38=1,62=2,172=1/1;
 2/12=2,17=6,18=5,40=1/2;
 1/38=1,53=2,62=2,63=1/22;
 3/5=4,6=6,7=111,11=9,25=1,30=1/1,2,3;
 4//1;
 5/5=2,38=5/2;
 8/10=2/1;
 9/16=-3/6;
 6/7=2,8=2,9=2,10=2/1;
 1/53=2,62=2,63=1/22;
 3/5=7,6=11,7=111,11=9,25=1,30=1,82=7/1,2,3;
 4//1;
 5/5=2,38=5/2;
 8/10=2/1;
 9/16=-3/6;
 6/7=2,8=2,9=2,10=2/1;
 1/53=2,62=2,63=1/22(-6);
 99/5=1,9=1/99;
 ---
 one
 ---
 Symbolic Z-matrix:
 Charge =  0 Multiplicity = 1 in supermolecule
 Charge =  0 Multiplicity = 1 in fragment      1.
 Charge =  0 Multiplicity = 1 in fragment      2.
 C(Fragment=1)        -0.0281    1.39971   0. 
 C(Fragment=1)        -1.24112   0.70037   0. 
 C(Fragment=1)        -1.24113  -0.70044   0. 
 C(Fragment=1)        -0.02824  -1.3998    0. 
 C(Fragment=1)         1.19664  -0.71817   0. 
 C(Fragment=1)         1.19675   0.71832   0. 
 O(Fragment=1)         2.37974   1.40908  0. 
 O(Fragment=1)         2.37965  -1.40898  0. 
 H(Fragment=1)        -2.1794   -1.2493    0. 
 H(Fragment=1)        -2.17933   1.24927   0. 
 Mg(Fragment=1)        3.61612   0.        0. 
 H(Fragment=1)        -0.00218   2.48677   0. 
 H(Fragment=1)        -0.0022   -2.48683   0. 
 H(Fragment=2)         5.8064    0.        0.37375 
 H(Fragment=2)         5.8064    0.       -0.37375 
 
                          Input orientation:                          
 ---------------------------------------------------------------------
 Center     Atomic      Atomic             Coordinates (Angstroms)
 Number     Number       Type             X           Y           Z
 ---------------------------------------------------------------------
      1          6           0       -0.028101    1.399708    0.000000
      2          6           0       -1.241115    0.700370    0.000000
      3          6           0       -1.241131   -0.700436    0.000000
      4          6           0       -0.028243   -1.399802    0.000000
      5          6           0        1.196641   -0.718172    0.000000
      6          6           0        1.196753    0.718318    0.000000
      7          8           0        2.379744    1.409079   -0.000001
      8          8           0        2.379651   -1.408981   -0.000001
      9          1           0       -2.179398   -1.249295    0.000000
     10          1           0       -2.179326    1.249273    0.000000
     11         12           0        3.616115    0.000004    0.000000
     12          1           0       -0.002183    2.486765    0.000000
     13          1           0       -0.002202   -2.486834    0.000000
     14          1           0        5.806397    0.000002    0.373752
     15          1           0        5.806397    0.000002   -0.373752
 ---------------------------------------------------------------------
                    Distance matrix (angstroms):
                    1          2          3          4          5
     1  C    0.000000
     2  C    1.400170   0.000000
     3  C    2.425293   1.400806   0.000000
     4  C    2.799510   2.425238   1.400075   0.000000
     5  C    2.446509   2.820446   2.437837   1.401770   0.000000
     6  C    1.401628   2.437934   2.820663   2.446844   1.436490
     7  O    2.407863   3.689565   4.190560   3.699759   2.434118
     8  O    3.699460   4.190383   3.689458   2.407911   1.369938
     9  H    3.412520   2.163693   1.087010   2.156414   3.417562
    10  H    2.156479   1.086984   2.163695   3.412441   3.907428
    11  Mg   3.903778   4.907463   4.907490   3.903947   2.523813
    12  H    1.087366   2.173973   3.419538   3.886654   3.421812
    13  H    3.886628   3.419528   2.173974   1.087344   2.136677
    14  H    6.011675   7.092082   7.092105   6.011835   4.680311
    15  H    6.011675   7.092082   7.092105   6.011835   4.680311
                    6          7          8          9         10
     6  C    0.000000
     7  O    1.369897   0.000000
     8  O    2.434060   2.818060   0.000000
     9  H    3.907671   5.277568   4.561845   0.000000
    10  H    3.417576   4.561870   5.277365   2.498568   0.000000
    11  Mg   2.523745   1.874595   1.874588   5.928636   5.928559
    12  H    2.136552   2.614380   4.566177   4.324166   2.504264
    13  H    3.422060   4.566378   2.614382   2.504333   4.324161
    14  H    4.680223   3.723861   3.723911   8.091561   8.091486
    15  H    4.680223   3.723861   3.723911   8.091561   8.091486
                   11         12         13         14         15
    11  Mg   0.000000
    12  H    4.390451   0.000000
    13  H    4.390510   4.973599   0.000000
    14  H    2.221942   6.329556   6.329602   0.000000
    15  H    2.221942   6.329556   6.329602   0.747504   0.000000
 Stoichiometry    C6H6MgO2
 Framework group  C1[X(C6H6MgO2)]
 Deg. of freedom    39
 Full point group                 C1      NOp   1
 Largest Abelian subgroup         C1      NOp   1
 Largest concise Abelian subgroup C1      NOp   1
                         Standard orientation:                         
 ---------------------------------------------------------------------
 Center     Atomic      Atomic             Coordinates (Angstroms)
 Number     Number       Type             X           Y           Z
 ---------------------------------------------------------------------
      1          6           0       -1.283011    1.399743    0.000000
      2          6           0       -2.496049    0.700447    0.000000
      3          6           0       -2.496113   -0.700359    0.000000
      4          6           0       -1.283249   -1.399767    0.000000
      5          6           0       -0.058342   -0.718179    0.000000
      6          6           0       -0.058180    0.718311    0.000000
      7          8           0        1.124835    1.409031   -0.000001
      8          8           0        1.124645   -1.409029   -0.000001
      9          1           0       -3.434399   -1.249186    0.000000
     10          1           0       -3.434241    1.249382    0.000000
     11         12           0        2.361157   -0.000087    0.000000
     12          1           0       -1.257055    2.486799    0.000000
     13          1           0       -1.257246   -2.486800    0.000000
     14          1           0        4.551439   -0.000165    0.373752
     15          1           0        4.551439   -0.000165   -0.373752
 ---------------------------------------------------------------------
 Rotational constants (GHZ):           3.3561682           1.1690252           0.8678611
 Counterpoise: doing full-system calculation.
 Standard basis: 6-311+G(d,p) (5D, 7F)
 There are   251 symmetry adapted cartesian basis functions of A   symmetry.
 There are   242 symmetry adapted basis functions of A   symmetry.
   242 basis functions,   386 primitive gaussians,   251 cartesian basis functions
    35 alpha electrons       35 beta electrons
       nuclear repulsion energy       465.5156069092 Hartrees.
 NAtoms=   15 NActive=   15 NUniq=   15 SFac= 1.00D+00 NAtFMM=   60 NAOKFM=F Big=F
 Integral buffers will be    131072 words long.
 Raffenetti 1 integral format.
 Two-electron integral symmetry is turned on.
 One-electron integrals computed using PRISM.
 NBasis=   242 RedAO= T EigKep=  1.61D-06  NBF=   242
 NBsUse=   242 1.00D-06 EigRej= -1.00D+00 NBFU=   242
 ExpMin= 1.46D-02 ExpMax= 4.39D+04 ExpMxC= 1.51D+03 IAcc=3 IRadAn=         5 AccDes= 0.00D+00
 Harris functional with IExCor=  205 and IRadAn=       5 diagonalized for initial guess.
 HarFok:  IExCor=  205 AccDes= 0.00D+00 IRadAn=         5 IDoV= 1 UseB2=F ITyADJ=14
 ICtDFT=  3500011 ScaDFX=  1.000000  1.000000  1.000000  1.000000
 FoFCou: FMM=F IPFlag=           0 FMFlag=      100000 FMFlg1=           0
         NFxFlg=           0 DoJE=T BraDBF=F KetDBF=T FulRan=T
         wScrn=  0.000000 ICntrl=       500 IOpCl=  0 I1Cent=   200000004 NGrid=           0
         NMat0=    1 NMatS0=      1 NMatT0=    0 NMatD0=    1 NMtDS0=    0 NMtDT0=    0
 Petite list used in FoFCou.
 Requested convergence on RMS density matrix=1.00D-08 within 128 cycles.
 Requested convergence on MAX density matrix=1.00D-06.
 Requested convergence on             energy=1.00D-06.
 No special actions if energy rises.
 SCF Done:  E(RHF) =  -580.125321462     A.U. after   16 cycles
            NFock= 16  Conv=0.52D-08     -V/T= 2.0013
 ExpMin= 1.46D-02 ExpMax= 4.39D+04 ExpMxC= 1.51D+03 IAcc=3 IRadAn=         5 AccDes= 0.00D+00
 HarFok:  IExCor=  205 AccDes= 0.00D+00 IRadAn=         5 IDoV=-2 UseB2=F ITyADJ=14
 ICtDFT= 12500011 ScaDFX=  1.000000  1.000000  1.000000  1.000000
 Range of M.O.s used for correlation:    14   242
 NBasis=   242 NAE=    35 NBE=    35 NFC=    13 NFV=     0
 NROrb=    229 NOA=    22 NOB=    22 NVA=   207 NVB=   207

 **** Warning!!: The largest alpha MO coefficient is  0.20206569D+03

 Fully in-core method, ICMem=  1033554264.
 JobTyp=1 Pass  1 fully in-core, NPsUse= 32.
 Spin components of T(2) and E(2):
     alpha-alpha T2 =       0.6094613985D-01 E2=     -0.1715856981D+00
     alpha-beta  T2 =       0.3141170999D+00 E2=     -0.9350688434D+00
     beta-beta   T2 =       0.6094613985D-01 E2=     -0.1715856981D+00
 ANorm=    0.1198336088D+01
 E2 =    -0.1278240240D+01 EUMP2 =    -0.58140356170189D+03

 **********************************************************************

            Population analysis using the SCF Density.

 **********************************************************************

 Orbital symmetries:
       Occupied  (A) (A) (A) (A) (A) (A) (A) (A) (A) (A) (A) (A)
                 (A) (A) (A) (A) (A) (A) (A) (A) (A) (A) (A) (A)
                 (A) (A) (A) (A) (A) (A) (A) (A) (A) (A) (A)
       Virtual   (A) (A) (A) (A) (A) (A) (A) (A) (A) (A) (A) (A)
                 (A) (A) (A) (A) (A) (A) (A) (A) (A) (A) (A) (A)
                 (A) (A) (A) (A) (A) (A) (A) (A) (A) (A) (A) (A)
                 (A) (A) (A) (A) (A) (A) (A) (A) (A) (A) (A) (A)
                 (A) (A) (A) (A) (A) (A) (A) (A) (A) (A) (A) (A)
                 (A) (A) (A) (A) (A) (A) (A) (A) (A) (A) (A) (A)
                 (A) (A) (A) (A) (A) (A) (A) (A) (A) (A) (A) (A)
                 (A) (A) (A) (A) (A) (A) (A) (A) (A) (A) (A) (A)
                 (A) (A) (A) (A) (A) (A) (A) (A) (A) (A) (A) (A)
                 (A) (A) (A) (A) (A) (A) (A) (A) (A) (A) (A) (A)
                 (A) (A) (A) (A) (A) (A) (A) (A) (A) (A) (A) (A)
                 (A) (A) (A) (A) (A) (A) (A) (A) (A) (A) (A) (A)
                 (A) (A) (A) (A) (A) (A) (A) (A) (A) (A) (A) (A)
                 (A) (A) (A) (A) (A) (A) (A) (A) (A) (A) (A) (A)
                 (A) (A) (A) (A) (A) (A) (A) (A) (A) (A) (A) (A)
                 (A) (A) (A) (A) (A) (A) (A) (A) (A) (A) (A) (A)
                 (A) (A) (A) (A) (A) (A) (A) (A) (A) (A) (A) (A)
                 (A) (A) (A)
 The electronic state is 1-A.
 Alpha  occ. eigenvalues --  -49.08676 -20.50158 -20.50157 -11.25479 -11.25380
 Alpha  occ. eigenvalues --  -11.19713 -11.19600 -11.19339 -11.19335  -3.81889
 Alpha  occ. eigenvalues --   -2.34203  -2.34178  -2.34008  -1.31107  -1.27391
 Alpha  occ. eigenvalues --   -1.08926  -0.96422  -0.93831  -0.78882  -0.76351
 Alpha  occ. eigenvalues --   -0.75781  -0.64897  -0.62852  -0.60592  -0.55922
 Alpha  occ. eigenvalues --   -0.54922  -0.54422  -0.49405  -0.49222  -0.47411
 Alpha  occ. eigenvalues --   -0.44564  -0.42026  -0.41643  -0.28551  -0.24929
 Alpha virt. eigenvalues --    0.00049   0.00299   0.02082   0.02237   0.04780
 Alpha virt. eigenvalues --    0.05610   0.06808   0.09994   0.10407   0.10969
 Alpha virt. eigenvalues --    0.12516   0.13718   0.13915   0.14771   0.16220
 Alpha virt. eigenvalues --    0.16359   0.16644   0.16797   0.18009   0.18434
 Alpha virt. eigenvalues --    0.18741   0.20861   0.20953   0.21009   0.21116
 Alpha virt. eigenvalues --    0.22763   0.24219   0.24703   0.24707   0.25592
 Alpha virt. eigenvalues --    0.26058   0.26900   0.29124   0.29732   0.30934
 Alpha virt. eigenvalues --    0.31300   0.32189   0.32658   0.34205   0.36916
 Alpha virt. eigenvalues --    0.37279   0.37534   0.37772   0.38713   0.38975
 Alpha virt. eigenvalues --    0.40243   0.42086   0.44277   0.44537   0.45957
 Alpha virt. eigenvalues --    0.47763   0.47836   0.48430   0.50827   0.54034
 Alpha virt. eigenvalues --    0.54207   0.54704   0.55031   0.58247   0.58373
 Alpha virt. eigenvalues --    0.59077   0.62578   0.65677   0.66185   0.71662
 Alpha virt. eigenvalues --    0.74357   0.75304   0.75881   0.76496   0.76742
 Alpha virt. eigenvalues --    0.79178   0.80128   0.81337   0.82057   0.83511
 Alpha virt. eigenvalues --    0.85498   0.86986   0.88046   0.89901   0.92221
 Alpha virt. eigenvalues --    0.93334   0.95558   0.96941   0.97655   1.01929
 Alpha virt. eigenvalues --    1.03206   1.04214   1.06008   1.10460   1.11882
 Alpha virt. eigenvalues --    1.13819   1.16616   1.17160   1.21449   1.22448
 Alpha virt. eigenvalues --    1.26225   1.27469   1.29111   1.29303   1.32199
 Alpha virt. eigenvalues --    1.37583   1.38951   1.41373   1.41801   1.43117
 Alpha virt. eigenvalues --    1.50666   1.53357   1.53708   1.55506   1.56286
 Alpha virt. eigenvalues --    1.64999   1.70313   1.70758   1.75808   1.80089
 Alpha virt. eigenvalues --    1.83583   1.84365   1.86671   1.88624   1.92813
 Alpha virt. eigenvalues --    1.95067   1.95208   1.96730   1.99828   2.02152
 Alpha virt. eigenvalues --    2.04466   2.05381   2.09996   2.12791   2.14660
 Alpha virt. eigenvalues --    2.17306   2.18131   2.20805   2.23328   2.26952
 Alpha virt. eigenvalues --    2.28781   2.29280   2.29989   2.36932   2.37072
 Alpha virt. eigenvalues --    2.38252   2.49777   2.56508   2.58392   2.65657
 Alpha virt. eigenvalues --    2.66279   2.79157   2.80132   2.80805   2.90555
 Alpha virt. eigenvalues --    2.94450   3.02967   3.05491   3.05968   3.08241
 Alpha virt. eigenvalues --    3.09970   3.11686   3.17948   3.18128   3.18618
 Alpha virt. eigenvalues --    3.23280   3.29822   3.30057   3.34107   3.35343
 Alpha virt. eigenvalues --    3.43161   3.46470   3.50464   3.50769   3.51122
 Alpha virt. eigenvalues --    3.58480   3.61186   3.61253   3.66102   3.70269
 Alpha virt. eigenvalues --    3.81964   3.84314   3.87974   3.93171   3.96520
 Alpha virt. eigenvalues --    3.99362   4.07883   4.17210   4.47752   4.49843
 Alpha virt. eigenvalues --    4.60603   4.68677   4.68753   5.29531   5.63660
 Alpha virt. eigenvalues --    5.68196   5.77772   5.90058   6.20805   6.35955
 Alpha virt. eigenvalues --    6.40366   6.64070   6.71161  24.77821  25.06715
 Alpha virt. eigenvalues --   25.11714  25.21755  25.27570  25.36846  51.70606
 Alpha virt. eigenvalues --   51.77382 105.78600
          Condensed to atoms (all electrons):
               1          2          3          4          5          6
     1  C   21.991779  -0.532164   1.272046  -7.560069 -10.044650   1.758816
     2  C   -0.532164   5.671057   0.307516   1.271708  -0.700558  -0.238765
     3  C    1.272046   0.307516   5.670534  -0.534316  -0.238633  -0.699165
     4  C   -7.560069   1.271708  -0.534316  21.990664   1.759300 -10.041752
     5  C  -10.044650  -0.700558  -0.238633   1.759300  21.538374  -7.304860
     6  C    1.758816  -0.238765  -0.699165 -10.041752  -7.304860  21.536417
     7  O   -1.097100   0.041328  -0.034459   0.270019   0.454965   0.330676
     8  O    0.270034  -0.034461   0.041438  -1.096884   0.330828   0.454586
     9  H   -0.031536   0.007100   0.395540  -0.032980   0.006807   0.021022
    10  H   -0.032928   0.395528   0.007121  -0.031571   0.021049   0.006765
    11  Mg   0.078607  -0.008632  -0.008607   0.079055  -0.144916  -0.145917
    12  H    0.321989  -0.010557  -0.004724  -0.004583   0.024491   0.043870
    13  H   -0.004537  -0.004751  -0.010478   0.321929   0.043902   0.024443
    14  H    0.000332   0.000182   0.000183   0.000328  -0.002137  -0.002146
    15  H    0.000332   0.000182   0.000183   0.000328  -0.002137  -0.002146
               7          8          9         10         11         12
     1  C   -1.097100   0.270034  -0.031536  -0.032928   0.078607   0.321989
     2  C    0.041328  -0.034461   0.007100   0.395528  -0.008632  -0.010557
     3  C   -0.034459   0.041438   0.395540   0.007121  -0.008607  -0.004724
     4  C    0.270019  -1.096884  -0.032980  -0.031571   0.079055  -0.004583
     5  C    0.454965   0.330828   0.006807   0.021049  -0.144916   0.024491
     6  C    0.330676   0.454586   0.021022   0.006765  -0.145917   0.043870
     7  O    8.340574   0.006951   0.000090  -0.000323   0.214184  -0.003927
     8  O    0.006951   8.340401  -0.000323   0.000090   0.214111  -0.000253
     9  H    0.000090  -0.000323   0.523286  -0.005070   0.000507  -0.000147
    10  H   -0.000323   0.000090  -0.005070   0.523275   0.000506  -0.005001
    11  Mg   0.214184   0.214111   0.000507   0.000506  10.593676   0.001984
    12  H   -0.003927  -0.000253  -0.000147  -0.005001   0.001984   0.510409
    13  H   -0.000253  -0.003930  -0.005000  -0.000147   0.001983   0.000019
    14  H    0.002907   0.002906  -0.000000  -0.000000   0.040680   0.000000
    15  H    0.002907   0.002906  -0.000000  -0.000000   0.040680   0.000000
              13         14         15
     1  C   -0.004537   0.000332   0.000332
     2  C   -0.004751   0.000182   0.000182
     3  C   -0.010478   0.000183   0.000183
     4  C    0.321929   0.000328   0.000328
     5  C    0.043902  -0.002137  -0.002137
     6  C    0.024443  -0.002146  -0.002146
     7  O   -0.000253   0.002907   0.002907
     8  O   -0.003930   0.002906   0.002906
     9  H   -0.005000  -0.000000  -0.000000
    10  H   -0.000147  -0.000000  -0.000000
    11  Mg   0.001983   0.040680   0.040680
    12  H    0.000019   0.000000   0.000000
    13  H    0.510392   0.000000   0.000000
    14  H    0.000000   0.528411   0.370718
    15  H    0.000000   0.370718   0.528410
 Mulliken charges:
               1
     1  C   -0.390950
     2  C   -0.164715
     3  C   -0.164180
     4  C   -0.391176
     5  C    0.258173
     6  C    0.258154
     7  O   -0.528540
     8  O   -0.528399
     9  H    0.120703
    10  H    0.120703
    11  Mg   1.042098
    12  H    0.126430
    13  H    0.126427
    14  H    0.057636
    15  H    0.057636
 Sum of Mulliken charges =  -0.00000
 Mulliken charges with hydrogens summed into heavy atoms:
               1
     1  C   -0.264520
     2  C   -0.044012
     3  C   -0.043477
     4  C   -0.264749
     5  C    0.258173
     6  C    0.258154
     7  O   -0.528540
     8  O   -0.528399
    11  Mg   1.157370
         Mulliken charges condensed to fragments:
      1     -0.115271
      2      0.115271
 Electronic spatial extent (au):  <R**2>=           1293.9894
 Charge=             -0.0000 electrons
 Dipole moment (field-independent basis, Debye):
    X=              9.8467    Y=             -0.0006    Z=              0.0000  Tot=              9.8467
 Quadrupole moment (field-independent basis, Debye-Ang):
   XX=            -16.6570   YY=            -65.9853   ZZ=            -58.3055
   XY=             -0.0018   XZ=              0.0000   YZ=             -0.0000
 Traceless Quadrupole moment (field-independent basis, Debye-Ang):
   XX=             30.3256   YY=            -19.0027   ZZ=            -11.3229
   XY=             -0.0018   XZ=              0.0000   YZ=             -0.0000
 Octapole moment (field-independent basis, Debye-Ang**2):
  XXX=            176.7646  YYY=             -0.0020  ZZZ=             -0.0000  XYY=             -9.6722
  XXY=             -0.0091  XXZ=              0.0000  XZZ=             26.8097  YZZ=             -0.0006
  YYZ=              0.0000  XYZ=              0.0000
 Hexadecapole moment (field-independent basis, Debye-Ang**3):
 XXXX=           -623.4449 YYYY=           -472.5637 ZZZZ=            -70.3972 XXXY=             -0.0234
 XXXZ=              0.0001 YYYX=             -0.0007 YYYZ=             -0.0000 ZZZX=              0.0001
 ZZZY=             -0.0000 XXYY=           -283.3685 XXZZ=           -207.8688 YYZZ=            -98.1049
 XXYZ=              0.0000 YYXZ=              0.0000 ZZXY=             -0.0007
 N-N= 4.655156069092D+02 E-N=-2.304810793580D+03  KE= 5.793721637094D+02
 CPIOFr:  IOpCl= 0 IRwI=-1 IRwCP=  731 ICalc= -1 LCPTot=       91764 Len1MO=      239696 IndFrg=       91764
 CPIOFr:  IOpCl= 0 IRwI=-1 IRwCP=  731 ICalc=  0 LCPTot=       91764 Len1MO=      239696 IndFrg=      331460
 Counterpoise: doing calculation for fragment   1 using the basis set of the full-system, NewBq=T
 Basis read from rwf:  (5D, 7F)
 There are   251 symmetry adapted cartesian basis functions of A   symmetry.
 There are   242 symmetry adapted basis functions of A   symmetry.
   242 basis functions,   386 primitive gaussians,   251 cartesian basis functions
    34 alpha electrons       34 beta electrons
       nuclear repulsion energy       447.3316166658 Hartrees.
 NAtoms=   15 NActive=   15 NUniq=   15 SFac= 1.00D+00 NAtFMM=   60 NAOKFM=F Big=F
 Integral buffers will be    131072 words long.
 Raffenetti 1 integral format.
 Two-electron integral symmetry is turned on.
 One-electron integrals computed using PRISM.
 NBasis=   242 RedAO= T EigKep=  1.61D-06  NBF=   242
 NBsUse=   242 1.00D-06 EigRej= -1.00D+00 NBFU=   242
 ExpMin= 1.46D-02 ExpMax= 4.39D+04 ExpMxC= 1.51D+03 IAcc=3 IRadAn=         5 AccDes= 0.00D+00
 Harris functional with IExCor=  205 and IRadAn=       5 diagonalized for initial guess.
 HarFok:  IExCor=  205 AccDes= 0.00D+00 IRadAn=         5 IDoV= 1 UseB2=F ITyADJ=14
 ICtDFT=  3500011 ScaDFX=  1.000000  1.000000  1.000000  1.000000
 FoFCou: FMM=F IPFlag=           0 FMFlag=      100000 FMFlg1=           0
         NFxFlg=           0 DoJE=T BraDBF=F KetDBF=T FulRan=T
         wScrn=  0.000000 ICntrl=       500 IOpCl=  0 I1Cent=   200000004 NGrid=           0
         NMat0=    1 NMatS0=      1 NMatT0=    0 NMatD0=    1 NMtDS0=    0 NMtDT0=    0
 Petite list used in FoFCou.
 Requested convergence on RMS density matrix=1.00D-08 within 128 cycles.
 Requested convergence on MAX density matrix=1.00D-06.
 Requested convergence on             energy=1.00D-06.
 No special actions if energy rises.
 SCF Done:  E(RHF) =  -578.984419309     A.U. after   15 cycles
            NFock= 15  Conv=0.77D-08     -V/T= 2.0013
 ExpMin= 1.46D-02 ExpMax= 4.39D+04 ExpMxC= 1.51D+03 IAcc=3 IRadAn=         5 AccDes= 0.00D+00
 HarFok:  IExCor=  205 AccDes= 0.00D+00 IRadAn=         5 IDoV=-2 UseB2=F ITyADJ=14
 ICtDFT= 12500011 ScaDFX=  1.000000  1.000000  1.000000  1.000000
 Range of M.O.s used for correlation:    14   242
 NBasis=   242 NAE=    34 NBE=    34 NFC=    13 NFV=     0
 NROrb=    229 NOA=    21 NOB=    21 NVA=   208 NVB=   208

 **** Warning!!: The largest alpha MO coefficient is  0.20149734D+03

 Fully in-core method, ICMem=  1033507578.
 JobTyp=1 Pass  1 fully in-core, NPsUse= 32.
 Spin components of T(2) and E(2):
     alpha-alpha T2 =       0.6099816678D-01 E2=     -0.1715451837D+00
     alpha-beta  T2 =       0.3050761399D+00 E2=     -0.9070707399D+00
     beta-beta   T2 =       0.6099816678D-01 E2=     -0.1715451837D+00
 ANorm=    0.1194601387D+01
 E2 =    -0.1250161107D+01 EUMP2 =    -0.58023458041609D+03

 **********************************************************************

            Population analysis using the SCF Density.

 **********************************************************************

 Orbital symmetries:
       Occupied  (A) (A) (A) (A) (A) (A) (A) (A) (A) (A) (A) (A)
                 (A) (A) (A) (A) (A) (A) (A) (A) (A) (A) (A) (A)
                 (A) (A) (A) (A) (A) (A) (A) (A) (A) (A)
       Virtual   (A) (A) (A) (A) (A) (A) (A) (A) (A) (A) (A) (A)
                 (A) (A) (A) (A) (A) (A) (A) (A) (A) (A) (A) (A)
                 (A) (A) (A) (A) (A) (A) (A) (A) (A) (A) (A) (A)
                 (A) (A) (A) (A) (A) (A) (A) (A) (A) (A) (A) (A)
                 (A) (A) (A) (A) (A) (A) (A) (A) (A) (A) (A) (A)
                 (A) (A) (A) (A) (A) (A) (A) (A) (A) (A) (A) (A)
                 (A) (A) (A) (A) (A) (A) (A) (A) (A) (A) (A) (A)
                 (A) (A) (A) (A) (A) (A) (A) (A) (A) (A) (A) (A)
                 (A) (A) (A) (A) (A) (A) (A) (A) (A) (A) (A) (A)
                 (A) (A) (A) (A) (A) (A) (A) (A) (A) (A) (A) (A)
                 (A) (A) (A) (A) (A) (A) (A) (A) (A) (A) (A) (A)
                 (A) (A) (A) (A) (A) (A) (A) (A) (A) (A) (A) (A)
                 (A) (A) (A) (A) (A) (A) (A) (A) (A) (A) (A) (A)
                 (A) (A) (A) (A) (A) (A) (A) (A) (A) (A) (A) (A)
                 (A) (A) (A) (A) (A) (A) (A) (A) (A) (A) (A) (A)
                 (A) (A) (A) (A) (A) (A) (A) (A) (A) (A) (A) (A)
                 (A) (A) (A) (A) (A) (A) (A) (A) (A) (A) (A) (A)
                 (A) (A) (A) (A)
 The electronic state is 1-A.
 Alpha  occ. eigenvalues --  -49.10367 -20.50797 -20.50795 -11.25897 -11.25797
 Alpha  occ. eigenvalues --  -11.20038 -11.19927 -11.19701 -11.19696  -3.83480
 Alpha  occ. eigenvalues --   -2.35762  -2.35736  -2.35574  -1.31665  -1.27963
 Alpha  occ. eigenvalues --   -1.09283  -0.96777  -0.94212  -0.79263  -0.76727
 Alpha  occ. eigenvalues --   -0.65311  -0.63268  -0.61036  -0.56389  -0.55288
 Alpha  occ. eigenvalues --   -0.54933  -0.49825  -0.49612  -0.47995  -0.44997
 Alpha  occ. eigenvalues --   -0.42416  -0.42117  -0.28906  -0.25368
 Alpha virt. eigenvalues --   -0.05733   0.01604   0.01871   0.02388   0.04380
 Alpha virt. eigenvalues --    0.06321   0.07341   0.08743   0.10382   0.10837
 Alpha virt. eigenvalues --    0.12301   0.13561   0.14443   0.15710   0.15950
 Alpha virt. eigenvalues --    0.16053   0.16734   0.17066   0.17582   0.17787
 Alpha virt. eigenvalues --    0.18351   0.20813   0.20898   0.20902   0.21501
 Alpha virt. eigenvalues --    0.22576   0.23456   0.24131   0.24466   0.25808
 Alpha virt. eigenvalues --    0.25837   0.26436   0.26897   0.28938   0.29765
 Alpha virt. eigenvalues --    0.30800   0.31095   0.32239   0.32464   0.33999
 Alpha virt. eigenvalues --    0.36730   0.36882   0.37422   0.38627   0.38750
 Alpha virt. eigenvalues --    0.39410   0.42231   0.43892   0.44715   0.45080
 Alpha virt. eigenvalues --    0.47145   0.47543   0.49582   0.50515   0.53144
 Alpha virt. eigenvalues --    0.53646   0.54336   0.55111   0.57640   0.58229
 Alpha virt. eigenvalues --    0.58475   0.65161   0.65323   0.70901   0.73488
 Alpha virt. eigenvalues --    0.74043   0.74684   0.76199   0.76220   0.78475
 Alpha virt. eigenvalues --    0.78678   0.79825   0.81552   0.82317   0.83162
 Alpha virt. eigenvalues --    0.86666   0.87280   0.87561   0.88785   0.90490
 Alpha virt. eigenvalues --    0.92366   0.93003   0.95251   0.96654   0.97517
 Alpha virt. eigenvalues --    1.01714   1.02891   1.03994   1.05699   1.10459
 Alpha virt. eigenvalues --    1.11566   1.13533   1.16254   1.16850   1.21971
 Alpha virt. eigenvalues --    1.22704   1.25919   1.27126   1.28817   1.29168
 Alpha virt. eigenvalues --    1.37249   1.38546   1.41064   1.41351   1.46298
 Alpha virt. eigenvalues --    1.49154   1.52625   1.52944   1.55120   1.56758
 Alpha virt. eigenvalues --    1.62698   1.69824   1.74110   1.76298   1.83268
 Alpha virt. eigenvalues --    1.83791   1.86367   1.88293   1.91328   1.94866
 Alpha virt. eigenvalues --    1.94907   1.97557   1.99427   2.04184   2.05105
 Alpha virt. eigenvalues --    2.09678   2.12168   2.17123   2.17790   2.20441
 Alpha virt. eigenvalues --    2.22751   2.24046   2.24500   2.26136   2.28493
 Alpha virt. eigenvalues --    2.28915   2.29658   2.30969   2.36713   2.36891
 Alpha virt. eigenvalues --    2.37939   2.49379   2.56129   2.58066   2.65298
 Alpha virt. eigenvalues --    2.66276   2.70279   2.78929   2.80468   2.89995
 Alpha virt. eigenvalues --    2.94115   3.02679   3.05185   3.05594   3.07837
 Alpha virt. eigenvalues --    3.09652   3.11338   3.17606   3.17795   3.18224
 Alpha virt. eigenvalues --    3.22923   3.29490   3.29706   3.33545   3.34910
 Alpha virt. eigenvalues --    3.41866   3.45927   3.50221   3.50772   3.58043
 Alpha virt. eigenvalues --    3.60643   3.60838   3.65559   3.69157   3.81040
 Alpha virt. eigenvalues --    3.83957   3.85256   3.87436   3.95794   3.98976
 Alpha virt. eigenvalues --    4.07500   4.15167   4.20462   4.47431   4.49546
 Alpha virt. eigenvalues --    4.60252   4.68240   4.68535   4.88307   5.29168
 Alpha virt. eigenvalues --    5.63075   5.67608   5.77207   5.89443   6.20237
 Alpha virt. eigenvalues --    6.35373   6.38912   6.62617   6.69950  24.77445
 Alpha virt. eigenvalues --   25.06316  25.11346  25.21397  25.27212  25.36500
 Alpha virt. eigenvalues --   51.69969  51.76745 105.76933
          Condensed to atoms (all electrons):
               1          2          3          4          5          6
     1  C   21.796238  -0.482091   1.254811  -7.502776 -10.049795   1.867559
     2  C   -0.482091   5.642712   0.306365   1.254515  -0.692710  -0.249054
     3  C    1.254811   0.306365   5.642065  -0.484104  -0.248997  -0.691205
     4  C   -7.502776   1.254515  -0.484104  21.795072   1.868001 -10.047001
     5  C  -10.049795  -0.692710  -0.248997   1.868001  21.503565  -7.375795
     6  C    1.867559  -0.249054  -0.691205 -10.047001  -7.375795  21.501418
     7  O   -1.100614   0.040713  -0.035167   0.271912   0.469740   0.321116
     8  O    0.271915  -0.035161   0.040822  -1.100387   0.321222   0.469393
     9  H   -0.031232   0.007033   0.395985  -0.033871   0.007368   0.020948
    10  H   -0.033817   0.395971   0.007054  -0.031267   0.020976   0.007326
    11  Mg   0.082652  -0.010481  -0.010458   0.083095  -0.145753  -0.146760
    12  H    0.322304  -0.009601  -0.004580  -0.004567   0.024600   0.042296
    13  H   -0.004520  -0.004607  -0.009522   0.322242   0.042332   0.024552
    14  H    0.000016   0.000009   0.000009   0.000016  -0.000186  -0.000185
    15  H    0.000016   0.000009   0.000009   0.000016  -0.000186  -0.000185
               7          8          9         10         11         12
     1  C   -1.100614   0.271915  -0.031232  -0.033817   0.082652   0.322304
     2  C    0.040713  -0.035161   0.007033   0.395971  -0.010481  -0.009601
     3  C   -0.035167   0.040822   0.395985   0.007054  -0.010458  -0.004580
     4  C    0.271912  -1.100387  -0.033871  -0.031267   0.083095  -0.004567
     5  C    0.469740   0.321222   0.007368   0.020976  -0.145753   0.024600
     6  C    0.321116   0.469393   0.020948   0.007326  -0.146760   0.042296
     7  O    8.332415   0.003688   0.000091  -0.000332   0.211611  -0.003822
     8  O    0.003688   8.332252  -0.000333   0.000091   0.211534  -0.000223
     9  H    0.000091  -0.000333   0.521665  -0.005045   0.000491  -0.000146
    10  H   -0.000332   0.000091  -0.005045   0.521655   0.000490  -0.004963
    11  Mg   0.211611   0.211534   0.000491   0.000490  10.602223   0.002008
    12  H   -0.003822  -0.000223  -0.000146  -0.004963   0.002008   0.508987
    13  H   -0.000223  -0.003825  -0.004962  -0.000146   0.002007   0.000019
    14  H    0.000001   0.000001   0.000000   0.000000  -0.000555   0.000000
    15  H    0.000001   0.000001   0.000000   0.000000  -0.000555   0.000000
              13         14         15
     1  C   -0.004520   0.000016   0.000016
     2  C   -0.004607   0.000009   0.000009
     3  C   -0.009522   0.000009   0.000009
     4  C    0.322242   0.000016   0.000016
     5  C    0.042332  -0.000186  -0.000186
     6  C    0.024552  -0.000185  -0.000185
     7  O   -0.000223   0.000001   0.000001
     8  O   -0.003825   0.000001   0.000001
     9  H   -0.004962   0.000000   0.000000
    10  H   -0.000146   0.000000   0.000000
    11  Mg   0.002007  -0.000555  -0.000555
    12  H    0.000019   0.000000   0.000000
    13  H    0.508970   0.000000   0.000000
    14  H    0.000000   0.000199  -0.000011
    15  H    0.000000  -0.000011   0.000199
 Mulliken charges:
               1
     1  C   -0.390669
     2  C   -0.163623
     3  C   -0.163089
     4  C   -0.390898
     5  C    0.255617
     6  C    0.255578
     7  O   -0.511131
     8  O   -0.510989
     9  H    0.122008
    10  H    0.122007
    11  Mg   1.118452
    12  H    0.127685
    13  H    0.127682
    14  H    0.000684
    15  H    0.000684
 Sum of Mulliken charges =  -0.00000
 Mulliken charges with hydrogens summed into heavy atoms:
               1
     1  C   -0.262983
     2  C   -0.041615
     3  C   -0.041081
     4  C   -0.263216
     5  C    0.255617
     6  C    0.255578
     7  O   -0.511131
     8  O   -0.510989
    11  Mg   1.119821
         Mulliken charges condensed to fragments:
      1     -0.001369
      2      0.001369
 Electronic spatial extent (au):  <R**2>=           1145.2862
 Charge=             -0.0000 electrons
 Dipole moment (field-independent basis, Debye):
    X=              8.9245    Y=             -0.0005    Z=              0.0000  Tot=              8.9245
 Quadrupole moment (field-independent basis, Debye-Ang):
   XX=            -20.5726   YY=            -63.7746   ZZ=            -56.9341
   XY=             -0.0016   XZ=              0.0000   YZ=             -0.0000
 Traceless Quadrupole moment (field-independent basis, Debye-Ang):
   XX=             26.5212   YY=            -16.6809   ZZ=             -9.8403
   XY=             -0.0016   XZ=              0.0000   YZ=             -0.0000
 Octapole moment (field-independent basis, Debye-Ang**2):
  XXX=            163.8626  YYY=             -0.0029  ZZZ=             -0.0000  XYY=             -1.2164
  XXY=             -0.0081  XXZ=              0.0000  XZZ=             32.4477  YZZ=             -0.0008
  YYZ=              0.0000  XYZ=              0.0000
 Hexadecapole moment (field-independent basis, Debye-Ang**3):
 XXXX=           -600.5602 YYYY=           -468.9297 ZZZZ=            -67.6398 XXXY=             -0.0202
 XXXZ=              0.0001 YYYX=             -0.0049 YYYZ=             -0.0000 ZZZX=              0.0001
 ZZZY=             -0.0000 XXYY=           -243.4342 XXZZ=           -181.5369 YYZZ=            -97.1203
 XXYZ=              0.0000 YYXZ=              0.0000 ZZXY=             -0.0017
 N-N= 4.473316166658D+02 E-N=-2.266121452524D+03  KE= 5.782277321968D+02
 CPIOFr:  IOpCl= 0 IRwI=-1 IRwCP=  731 ICalc=  1 LCPTot=       91764 Len1MO=      239696 IndFrg=      571156
 Counterpoise: doing calculation for fragment   2 using the basis set of the full-system, NewBq=T
 Basis read from rwf:  (5D, 7F)
 There are   251 symmetry adapted cartesian basis functions of A   symmetry.
 There are   242 symmetry adapted basis functions of A   symmetry.
   242 basis functions,   386 primitive gaussians,   251 cartesian basis functions
     1 alpha electrons        1 beta electrons
       nuclear repulsion energy         0.7079255909 Hartrees.
 NAtoms=   15 NActive=   15 NUniq=   15 SFac= 1.00D+00 NAtFMM=   60 NAOKFM=F Big=F
 Integral buffers will be    131072 words long.
 Raffenetti 1 integral format.
 Two-electron integral symmetry is turned on.
 One-electron integrals computed using PRISM.
 NBasis=   242 RedAO= T EigKep=  1.61D-06  NBF=   242
 NBsUse=   242 1.00D-06 EigRej= -1.00D+00 NBFU=   242
 ExpMin= 1.46D-02 ExpMax= 4.39D+04 ExpMxC= 1.51D+03 IAcc=3 IRadAn=         5 AccDes= 0.00D+00
 Harris functional with IExCor=  205 and IRadAn=       5 diagonalized for initial guess.
 HarFok:  IExCor=  205 AccDes= 0.00D+00 IRadAn=         5 IDoV= 1 UseB2=F ITyADJ=14
 ICtDFT=  3500011 ScaDFX=  1.000000  1.000000  1.000000  1.000000
 FoFCou: FMM=F IPFlag=           0 FMFlag=      100000 FMFlg1=           0
         NFxFlg=           0 DoJE=T BraDBF=F KetDBF=T FulRan=T
         wScrn=  0.000000 ICntrl=       500 IOpCl=  0 I1Cent=   200000004 NGrid=           0
         NMat0=    1 NMatS0=      1 NMatT0=    0 NMatD0=    1 NMtDS0=    0 NMtDT0=    0
 Petite list used in FoFCou.
 Requested convergence on RMS density matrix=1.00D-08 within 128 cycles.
 Requested convergence on MAX density matrix=1.00D-06.
 Requested convergence on             energy=1.00D-06.
 No special actions if energy rises.
 SCF Done:  E(RHF) =  -1.13244959140     A.U. after    7 cycles
            NFock=  7  Conv=0.93D-09     -V/T= 2.0149
 Range of M.O.s used for correlation:     1   242
 NBasis=   242 NAE=     1 NBE=     1 NFC=     0 NFV=     0
 NROrb=    242 NOA=     1 NOB=     1 NVA=   241 NVB=   241

 **** Warning!!: The largest alpha MO coefficient is  0.17520665D+03

 Fully in-core method, ICMem=  1032471701.
 JobTyp=1 Pass  1 fully in-core, NPsUse= 32.
 Spin components of T(2) and E(2):
     alpha-alpha T2 =       0.0000000000D+00 E2=      0.0000000000D+00
     alpha-beta  T2 =       0.9553738272D-02 E2=     -0.2834384173D-01
     beta-beta   T2 =       0.0000000000D+00 E2=      0.0000000000D+00
 ANorm=    0.1004765514D+01
 E2 =    -0.2834384173D-01 EUMP2 =    -0.11607934331312D+01

 **********************************************************************

            Population analysis using the SCF Density.

 **********************************************************************

 Orbital symmetries:
       Occupied  (A)
       Virtual   (A) (A) (A) (A) (A) (A) (A) (A) (A) (A) (A) (A)
                 (A) (A) (A) (A) (A) (A) (A) (A) (A) (A) (A) (A)
                 (A) (A) (A) (A) (A) (A) (A) (A) (A) (A) (A) (A)
                 (A) (A) (A) (A) (A) (A) (A) (A) (A) (A) (A) (A)
                 (A) (A) (A) (A) (A) (A) (A) (A) (A) (A) (A) (A)
                 (A) (A) (A) (A) (A) (A) (A) (A) (A) (A) (A) (A)
                 (A) (A) (A) (A) (A) (A) (A) (A) (A) (A) (A) (A)
                 (A) (A) (A) (A) (A) (A) (A) (A) (A) (A) (A) (A)
                 (A) (A) (A) (A) (A) (A) (A) (A) (A) (A) (A) (A)
                 (A) (A) (A) (A) (A) (A) (A) (A) (A) (A) (A) (A)
                 (A) (A) (A) (A) (A) (A) (A) (A) (A) (A) (A) (A)
                 (A) (A) (A) (A) (A) (A) (A) (A) (A) (A) (A) (A)
                 (A) (A) (A) (A) (A) (A) (A) (A) (A) (A) (A) (A)
                 (A) (A) (A) (A) (A) (A) (A) (A) (A) (A) (A) (A)
                 (A) (A) (A) (A) (A) (A) (A) (A) (A) (A) (A) (A)
                 (A) (A) (A) (A) (A) (A) (A) (A) (A) (A) (A) (A)
                 (A) (A) (A) (A) (A) (A) (A) (A) (A) (A) (A) (A)
                 (A) (A) (A) (A) (A) (A) (A) (A) (A) (A) (A) (A)
                 (A) (A) (A) (A) (A) (A) (A) (A) (A) (A) (A) (A)
                 (A) (A) (A) (A) (A) (A) (A) (A) (A) (A) (A) (A)
                 (A)
 The electronic state is 1-A.
 Alpha  occ. eigenvalues --   -0.59236
 Alpha virt. eigenvalues --    0.01988   0.02949   0.02983   0.03215   0.06146
 Alpha virt. eigenvalues --    0.07203   0.08005   0.09812   0.09967   0.10008
 Alpha virt. eigenvalues --    0.10758   0.11545   0.12173   0.12957   0.14608
 Alpha virt. eigenvalues --    0.14716   0.15150   0.16255   0.17022   0.18457
 Alpha virt. eigenvalues --    0.18638   0.18987   0.20462   0.21474   0.22136
 Alpha virt. eigenvalues --    0.23282   0.23885   0.24039   0.24914   0.25644
 Alpha virt. eigenvalues --    0.25654   0.26295   0.27241   0.27434   0.29931
 Alpha virt. eigenvalues --    0.30017   0.31007   0.31212   0.31606   0.34949
 Alpha virt. eigenvalues --    0.35486   0.36614   0.36997   0.38202   0.38959
 Alpha virt. eigenvalues --    0.39178   0.43494   0.44104   0.44166   0.47026
 Alpha virt. eigenvalues --    0.47061   0.47178   0.49099   0.49548   0.49559
 Alpha virt. eigenvalues --    0.53259   0.55668   0.57481   0.58588   0.59712
 Alpha virt. eigenvalues --    0.61851   0.62955   0.66637   0.67939   0.70915
 Alpha virt. eigenvalues --    0.71840   0.73801   0.75331   0.75749   0.78311
 Alpha virt. eigenvalues --    0.78810   0.78952   0.81349   0.84165   0.90160
 Alpha virt. eigenvalues --    0.90849   0.91864   0.94919   0.95863   0.98224
 Alpha virt. eigenvalues --    0.99559   1.00029   1.01467   1.02116   1.10032
 Alpha virt. eigenvalues --    1.11124   1.12774   1.15737   1.17710   1.18106
 Alpha virt. eigenvalues --    1.21544   1.22390   1.27767   1.30532   1.35801
 Alpha virt. eigenvalues --    1.37195   1.41849   1.42301   1.49336   1.51449
 Alpha virt. eigenvalues --    1.51899   1.53465   1.55505   1.56382   1.57251
 Alpha virt. eigenvalues --    1.69897   1.70761   1.71272   1.72248   1.72639
 Alpha virt. eigenvalues --    1.76483   1.76664   1.80423   1.80868   1.83666
 Alpha virt. eigenvalues --    1.86914   1.89788   1.92623   1.94610   1.98121
 Alpha virt. eigenvalues --    1.99535   2.02353   2.06076   2.07738   2.08266
 Alpha virt. eigenvalues --    2.09944   2.12060   2.18682   2.19223   2.29979
 Alpha virt. eigenvalues --    2.29996   2.31691   2.32312   2.37101   2.38453
 Alpha virt. eigenvalues --    2.39647   2.41461   2.47814   2.51787   2.54423
 Alpha virt. eigenvalues --    2.57365   2.57380   2.58291   2.71343   2.73318
 Alpha virt. eigenvalues --    2.78998   2.82631   2.83872   2.87391   2.93426
 Alpha virt. eigenvalues --    2.94148   2.96885   2.99159   2.99640   3.08755
 Alpha virt. eigenvalues --    3.10169   3.11291   3.13289   3.23775   3.29992
 Alpha virt. eigenvalues --    3.30332   3.32440   3.33093   3.35626   3.37105
 Alpha virt. eigenvalues --    3.46799   3.48260   3.49010   3.52903   3.54783
 Alpha virt. eigenvalues --    3.56782   3.65413   3.72806   3.78878   3.94862
 Alpha virt. eigenvalues --    4.02321   4.20135   4.24033   4.36848   4.40841
 Alpha virt. eigenvalues --    4.60868   4.61062   4.63618   4.63847   4.82418
 Alpha virt. eigenvalues --    4.85346   4.87044   4.90756   4.91680   4.93298
 Alpha virt. eigenvalues --    5.06521   5.32987   5.36177   5.62391   5.86838
 Alpha virt. eigenvalues --    7.02125   7.03746   7.09957   7.12650   7.21610
 Alpha virt. eigenvalues --    7.22688   7.35792   7.71696   7.73374   7.73751
 Alpha virt. eigenvalues --    7.73889   7.80110   7.81861   7.95388   7.97633
 Alpha virt. eigenvalues --    8.06715   8.14591   8.31672   8.92829   9.65530
 Alpha virt. eigenvalues --   10.12873  10.18813  10.21852  10.25188  10.30005
 Alpha virt. eigenvalues --   13.49173  13.53604  13.66552  13.77774  14.00918
 Alpha virt. eigenvalues --   14.12381  18.54457  18.66969  24.89319  25.10803
 Alpha virt. eigenvalues --   25.16919  42.01475  69.74670  69.92738  69.97541
 Alpha virt. eigenvalues --   70.00366  70.02414  70.06264 139.78856 139.81008
 Alpha virt. eigenvalues --  308.94839
          Condensed to atoms (all electrons):
               1          2          3          4          5          6
     1  C    0.005676   0.001325   0.000810   0.003484  -0.002534  -0.005425
     2  C    0.001325   0.000534   0.000291   0.000824  -0.000843  -0.001619
     3  C    0.000810   0.000291   0.000525   0.001320  -0.001611  -0.000828
     4  C    0.003484   0.000824   0.001320   0.005723  -0.005470  -0.002533
     5  C   -0.002534  -0.000843  -0.001611  -0.005470   0.006337   0.002370
     6  C   -0.005425  -0.001619  -0.000828  -0.002533   0.002370   0.006295
     7  O   -0.000057   0.000012  -0.000011  -0.000140  -0.000010  -0.000128
     8  O   -0.000139  -0.000011   0.000012  -0.000057  -0.000129  -0.000011
     9  H    0.000011   0.000008   0.000018   0.000021  -0.000038  -0.000018
    10  H    0.000021   0.000018   0.000008   0.000011  -0.000018  -0.000038
    11  Mg  -0.003078  -0.000522  -0.000517  -0.003090   0.001970   0.001960
    12  H   -0.000050  -0.000016  -0.000004  -0.000014   0.000010   0.000060
    13  H   -0.000014  -0.000004  -0.000016  -0.000051   0.000061   0.000010
    14  H   -0.000874  -0.000037  -0.000036  -0.000876  -0.001490  -0.001489
    15  H   -0.000874  -0.000037  -0.000036  -0.000876  -0.001490  -0.001489
               7          8          9         10         11         12
     1  C   -0.000057  -0.000139   0.000011   0.000021  -0.003078  -0.000050
     2  C    0.000012  -0.000011   0.000008   0.000018  -0.000522  -0.000016
     3  C   -0.000011   0.000012   0.000018   0.000008  -0.000517  -0.000004
     4  C   -0.000140  -0.000057   0.000021   0.000011  -0.003090  -0.000014
     5  C   -0.000010  -0.000129  -0.000038  -0.000018   0.001970   0.000010
     6  C   -0.000128  -0.000011  -0.000018  -0.000038   0.001960   0.000060
     7  O    0.000058   0.000039   0.000000   0.000000   0.000195  -0.000002
     8  O    0.000039   0.000058   0.000000   0.000000   0.000194   0.000000
     9  H    0.000000   0.000000   0.000001   0.000000  -0.000004  -0.000000
    10  H    0.000000   0.000000   0.000000   0.000001  -0.000004  -0.000000
    11  Mg   0.000195   0.000194  -0.000004  -0.000004   0.003097   0.000015
    12  H   -0.000002   0.000000  -0.000000  -0.000000   0.000015   0.000001
    13  H    0.000000  -0.000002  -0.000000  -0.000000   0.000015   0.000000
    14  H    0.000764   0.000764  -0.000000  -0.000000  -0.005246   0.000000
    15  H    0.000764   0.000764  -0.000000  -0.000000  -0.005246   0.000000
              13         14         15
     1  C   -0.000014  -0.000874  -0.000874
     2  C   -0.000004  -0.000037  -0.000037
     3  C   -0.000016  -0.000036  -0.000036
     4  C   -0.000051  -0.000876  -0.000876
     5  C    0.000061  -0.001490  -0.001490
     6  C    0.000010  -0.001489  -0.001489
     7  O    0.000000   0.000764   0.000764
     8  O   -0.000002   0.000764   0.000764
     9  H   -0.000000  -0.000000  -0.000000
    10  H   -0.000000  -0.000000  -0.000000
    11  Mg   0.000015  -0.005246  -0.005246
    12  H    0.000000   0.000000   0.000000
    13  H    0.000001   0.000000   0.000000
    14  H    0.000000   0.590547   0.426298
    15  H    0.000000   0.426298   0.590547
 Mulliken charges:
               1
     1  C    0.001719
     2  C    0.000075
     3  C    0.000074
     4  C    0.001723
     5  C    0.002885
     6  C    0.002883
     7  O   -0.001485
     8  O   -0.001485
     9  H    0.000000
    10  H    0.000000
    11  Mg   0.010263
    12  H   -0.000000
    13  H   -0.000000
    14  H   -0.008325
    15  H   -0.008325
 Sum of Mulliken charges =   0.00000
 Mulliken charges with hydrogens summed into heavy atoms:
               1
     1  C    0.001718
     2  C    0.000075
     3  C    0.000074
     4  C    0.001723
     5  C    0.002885
     6  C    0.002883
     7  O   -0.001485
     8  O   -0.001485
    11  Mg  -0.006388
         Mulliken charges condensed to fragments:
      1      0.016651
      2     -0.016651
 Electronic spatial extent (au):  <R**2>=            153.1272
 Charge=             -0.0000 electrons
 Dipole moment (field-independent basis, Debye):
    X=              0.0040    Y=              0.0000    Z=              0.0000  Tot=              0.0040
 Quadrupole moment (field-independent basis, Debye-Ang):
   XX=             -2.0637   YY=             -2.0793   ZZ=             -1.4739
   XY=              0.0000   XZ=              0.0000   YZ=             -0.0000
 Traceless Quadrupole moment (field-independent basis, Debye-Ang):
   XX=             -0.1914   YY=             -0.2070   ZZ=              0.3984
   XY=              0.0000   XZ=              0.0000   YZ=             -0.0000
 Octapole moment (field-independent basis, Debye-Ang**2):
  XXX=            -28.4257  YYY=              0.0010  ZZZ=             -0.0000  XYY=             -9.4636
  XXY=              0.0004  XXZ=             -0.0000  XZZ=             -6.7160  YZZ=              0.0002
  YYZ=             -0.0000  XYZ=             -0.0000
 Hexadecapole moment (field-independent basis, Debye-Ang**3):
 XXXX=           -261.6081 YYYY=             -2.0460 ZZZZ=             -2.8766 XXXY=              0.0048
 XXXZ=             -0.0000 YYYX=              0.0047 YYYZ=              0.0000 ZZZX=             -0.0000
 ZZZY=              0.0000 XXYY=            -43.7706 XXZZ=            -31.4523 YYZZ=             -0.8388
 XXYZ=              0.0000 YYXZ=             -0.0000 ZZXY=              0.0011
 N-N= 7.079255909266D-01 E-N=-3.611878957393D+00  KE= 1.115851735966D+00
 CPIOFr:  IOpCl= 0 IRwI=-1 IRwCP=  731 ICalc=  2 LCPTot=       91764 Len1MO=      239696 IndFrg=      810852
 Counterpoise: doing calculation for fragment   1 using the basis set of the fragment.
 Basis read from rwf:  (5D, 7F)
 There are   239 symmetry adapted cartesian basis functions of A   symmetry.
 There are   230 symmetry adapted basis functions of A   symmetry.
   230 basis functions,   370 primitive gaussians,   239 cartesian basis functions
    34 alpha electrons       34 beta electrons
       nuclear repulsion energy       447.3316166658 Hartrees.
 NAtoms=   15 NActive=   13 NUniq=   13 SFac= 1.00D+00 NAtFMM=   60 NAOKFM=F Big=F
 Integral buffers will be    131072 words long.
 Raffenetti 1 integral format.
 Two-electron integral symmetry is turned on.
 One-electron integrals computed using PRISM.
 NBasis=   230 RedAO= T EigKep=  1.61D-06  NBF=   230
 NBsUse=   230 1.00D-06 EigRej= -1.00D+00 NBFU=   230
 ExpMin= 1.46D-02 ExpMax= 4.39D+04 ExpMxC= 1.51D+03 IAcc=3 IRadAn=         5 AccDes= 0.00D+00
 Harris functional with IExCor=  205 and IRadAn=       5 diagonalized for initial guess.
 HarFok:  IExCor=  205 AccDes= 0.00D+00 IRadAn=         5 IDoV= 1 UseB2=F ITyADJ=14
 ICtDFT=  3500011 ScaDFX=  1.000000  1.000000  1.000000  1.000000
 FoFCou: FMM=F IPFlag=           0 FMFlag=      100000 FMFlg1=           0
         NFxFlg=           0 DoJE=T BraDBF=F KetDBF=T FulRan=T
         wScrn=  0.000000 ICntrl=       500 IOpCl=  0 I1Cent=   200000004 NGrid=           0
         NMat0=    1 NMatS0=      1 NMatT0=    0 NMatD0=    1 NMtDS0=    0 NMtDT0=    0
 Petite list used in FoFCou.
 Requested convergence on RMS density matrix=1.00D-08 within 128 cycles.
 Requested convergence on MAX density matrix=1.00D-06.
 Requested convergence on             energy=1.00D-06.
 No special actions if energy rises.
 SCF Done:  E(RHF) =  -578.984244950     A.U. after   16 cycles
            NFock= 16  Conv=0.59D-08     -V/T= 2.0013
 ExpMin= 1.46D-02 ExpMax= 4.39D+04 ExpMxC= 1.51D+03 IAcc=3 IRadAn=         5 AccDes= 0.00D+00
 HarFok:  IExCor=  205 AccDes= 0.00D+00 IRadAn=         5 IDoV=-2 UseB2=F ITyADJ=14
 ICtDFT= 12500011 ScaDFX=  1.000000  1.000000  1.000000  1.000000
 Range of M.O.s used for correlation:    14   230
 NBasis=   230 NAE=    34 NBE=    34 NFC=    13 NFV=     0
 NROrb=    217 NOA=    21 NOB=    21 NVA=   196 NVB=   196

 **** Warning!!: The largest alpha MO coefficient is  0.20134999D+03

 Fully in-core method, ICMem=   852956790.
 JobTyp=1 Pass  1 fully in-core, NPsUse= 32.
 Spin components of T(2) and E(2):
     alpha-alpha T2 =       0.6098333125D-01 E2=     -0.1715008654D+00
     alpha-beta  T2 =       0.3050200840D+00 E2=     -0.9068726015D+00
     beta-beta   T2 =       0.6098333125D-01 E2=     -0.1715008654D+00
 ANorm=    0.1194565505D+01
 E2 =    -0.1249874332D+01 EUMP2 =    -0.58023411928179D+03

 **********************************************************************

            Population analysis using the SCF Density.

 **********************************************************************

 Orbital symmetries:
       Occupied  (A) (A) (A) (A) (A) (A) (A) (A) (A) (A) (A) (A)
                 (A) (A) (A) (A) (A) (A) (A) (A) (A) (A) (A) (A)
                 (A) (A) (A) (A) (A) (A) (A) (A) (A) (A)
       Virtual   (A) (A) (A) (A) (A) (A) (A) (A) (A) (A) (A) (A)
                 (A) (A) (A) (A) (A) (A) (A) (A) (A) (A) (A) (A)
                 (A) (A) (A) (A) (A) (A) (A) (A) (A) (A) (A) (A)
                 (A) (A) (A) (A) (A) (A) (A) (A) (A) (A) (A) (A)
                 (A) (A) (A) (A) (A) (A) (A) (A) (A) (A) (A) (A)
                 (A) (A) (A) (A) (A) (A) (A) (A) (A) (A) (A) (A)
                 (A) (A) (A) (A) (A) (A) (A) (A) (A) (A) (A) (A)
                 (A) (A) (A) (A) (A) (A) (A) (A) (A) (A) (A) (A)
                 (A) (A) (A) (A) (A) (A) (A) (A) (A) (A) (A) (A)
                 (A) (A) (A) (A) (A) (A) (A) (A) (A) (A) (A) (A)
                 (A) (A) (A) (A) (A) (A) (A) (A) (A) (A) (A) (A)
                 (A) (A) (A) (A) (A) (A) (A) (A) (A) (A) (A) (A)
                 (A) (A) (A) (A) (A) (A) (A) (A) (A) (A) (A) (A)
                 (A) (A) (A) (A) (A) (A) (A) (A) (A) (A) (A) (A)
                 (A) (A) (A) (A) (A) (A) (A) (A) (A) (A) (A) (A)
                 (A) (A) (A) (A) (A) (A) (A) (A) (A) (A) (A) (A)
                 (A) (A) (A) (A)
 The electronic state is 1-A.
 Alpha  occ. eigenvalues --  -49.10380 -20.50798 -20.50797 -11.25898 -11.25799
 Alpha  occ. eigenvalues --  -11.20039 -11.19928 -11.19702 -11.19697  -3.83493
 Alpha  occ. eigenvalues --   -2.35776  -2.35748  -2.35586  -1.31668  -1.27967
 Alpha  occ. eigenvalues --   -1.09284  -0.96778  -0.94214  -0.79264  -0.76728
 Alpha  occ. eigenvalues --   -0.65312  -0.63269  -0.61038  -0.56390  -0.55290
 Alpha  occ. eigenvalues --   -0.54934  -0.49828  -0.49613  -0.47998  -0.45001
 Alpha  occ. eigenvalues --   -0.42417  -0.42119  -0.28907  -0.25369
 Alpha virt. eigenvalues --   -0.05720   0.01708   0.01925   0.02388   0.04418
 Alpha virt. eigenvalues --    0.06427   0.07342   0.08764   0.10451   0.10837
 Alpha virt. eigenvalues --    0.12336   0.13561   0.14459   0.15950   0.16125
 Alpha virt. eigenvalues --    0.16451   0.16735   0.17737   0.17787   0.18392
 Alpha virt. eigenvalues --    0.19382   0.20848   0.20899   0.20903   0.21806
 Alpha virt. eigenvalues --    0.24135   0.24464   0.24465   0.24511   0.25837
 Alpha virt. eigenvalues --    0.26694   0.28943   0.29190   0.30803   0.31014
 Alpha virt. eigenvalues --    0.31403   0.32466   0.33999   0.36275   0.36734
 Alpha virt. eigenvalues --    0.36884   0.36959   0.37447   0.38750   0.41449
 Alpha virt. eigenvalues --    0.43875   0.43892   0.44755   0.47185   0.47542
 Alpha virt. eigenvalues --    0.47967   0.50515   0.52880   0.53659   0.54325
 Alpha virt. eigenvalues --    0.55147   0.57906   0.58262   0.58896   0.64849
 Alpha virt. eigenvalues --    0.65328   0.70860   0.74043   0.74699   0.75421
 Alpha virt. eigenvalues --    0.75903   0.76223   0.78510   0.79825   0.80239
 Alpha virt. eigenvalues --    0.81021   0.83160   0.84563   0.86666   0.87009
 Alpha virt. eigenvalues --    0.90911   0.91413   0.93002   0.95261   0.96663
 Alpha virt. eigenvalues --    0.97188   1.01442   1.02901   1.03230   1.05702
 Alpha virt. eigenvalues --    1.09705   1.11567   1.13545   1.16253   1.16682
 Alpha virt. eigenvalues --    1.20467   1.22824   1.25785   1.27126   1.28761
 Alpha virt. eigenvalues --    1.28813   1.37248   1.37696   1.41056   1.41365
 Alpha virt. eigenvalues --    1.45157   1.49673   1.52792   1.52997   1.55137
 Alpha virt. eigenvalues --    1.56665   1.68981   1.69829   1.76358   1.83233
 Alpha virt. eigenvalues --    1.83857   1.86366   1.88292   1.92077   1.94859
 Alpha virt. eigenvalues --    1.96126   1.99430   2.03787   2.05100   2.09548
 Alpha virt. eigenvalues --    2.12006   2.16304   2.17699   2.20449   2.22946
 Alpha virt. eigenvalues --    2.26383   2.28300   2.28858   2.29580   2.36128
 Alpha virt. eigenvalues --    2.36678   2.37781   2.49374   2.55864   2.58064
 Alpha virt. eigenvalues --    2.65290   2.66031   2.78888   2.80446   2.89918
 Alpha virt. eigenvalues --    2.94109   3.02637   3.05064   3.05182   3.07802
 Alpha virt. eigenvalues --    3.09647   3.11324   3.17322   3.17598   3.18215
 Alpha virt. eigenvalues --    3.22849   3.28909   3.29705   3.33514   3.34870
 Alpha virt. eigenvalues --    3.41862   3.45693   3.50007   3.50771   3.57969
 Alpha virt. eigenvalues --    3.60287   3.60772   3.65557   3.68971   3.81129
 Alpha virt. eigenvalues --    3.83903   3.86523   3.87432   3.95581   3.98955
 Alpha virt. eigenvalues --    4.07495   4.16467   4.47430   4.49237   4.60241
 Alpha virt. eigenvalues --    4.67020   4.68214   5.29166   5.62510   5.67595
 Alpha virt. eigenvalues --    5.76740   5.89265   6.19790   6.35098   6.38364
 Alpha virt. eigenvalues --    6.61945   6.64266  24.77119  25.06314  25.11102
 Alpha virt. eigenvalues --   25.21394  25.27194  25.36496  51.69737  51.76669
 Alpha virt. eigenvalues --  105.73297
          Condensed to atoms (all electrons):
               1          2          3          4          5          6
     1  C   21.664207  -0.496358   1.253411  -7.598475  -9.950340   1.990640
     2  C   -0.496358   5.642504   0.306970   1.253159  -0.683066  -0.239713
     3  C    1.253411   0.306970   5.641898  -0.498511  -0.239550  -0.681536
     4  C   -7.598475   1.253159  -0.498511  21.663441   1.990591  -9.947342
     5  C   -9.950340  -0.683066  -0.239550   1.990591  21.335299  -7.426579
     6  C    1.990640  -0.239713  -0.681536  -9.947342  -7.426579  21.332657
     7  O   -1.107805   0.042101  -0.034629   0.266084   0.470235   0.317797
     8  O    0.266109  -0.034631   0.042225  -1.107591   0.317922   0.469864
     9  H   -0.030310   0.007125   0.396437  -0.032197   0.005369   0.019846
    10  H   -0.032139   0.396421   0.007145  -0.030348   0.019876   0.005327
    11  Mg   0.102350  -0.016590  -0.016581   0.102829  -0.167250  -0.168268
    12  H    0.324893  -0.009084  -0.004443  -0.003791   0.023865   0.039623
    13  H   -0.003744  -0.004471  -0.009002   0.324819   0.039669   0.023815
               7          8          9         10         11         12
     1  C   -1.107805   0.266109  -0.030310  -0.032139   0.102350   0.324893
     2  C    0.042101  -0.034631   0.007125   0.396421  -0.016590  -0.009084
     3  C   -0.034629   0.042225   0.396437   0.007145  -0.016581  -0.004443
     4  C    0.266084  -1.107591  -0.032197  -0.030348   0.102829  -0.003791
     5  C    0.470235   0.317922   0.005369   0.019876  -0.167250   0.023865
     6  C    0.317797   0.469864   0.019846   0.005327  -0.168268   0.039623
     7  O    8.338793   0.004706   0.000093  -0.000329   0.213181  -0.003761
     8  O    0.004706   8.338627  -0.000329   0.000093   0.213097  -0.000198
     9  H    0.000093  -0.000329   0.521724  -0.005035   0.000372  -0.000145
    10  H   -0.000329   0.000093  -0.005035   0.521714   0.000371  -0.004951
    11  Mg   0.213181   0.213097   0.000372   0.000371  10.655285   0.001307
    12  H   -0.003761  -0.000198  -0.000145  -0.004951   0.001307   0.509022
    13  H   -0.000198  -0.003764  -0.004950  -0.000145   0.001306   0.000020
              13
     1  C   -0.003744
     2  C   -0.004471
     3  C   -0.009002
     4  C    0.324819
     5  C    0.039669
     6  C    0.023815
     7  O   -0.000198
     8  O   -0.003764
     9  H   -0.004950
    10  H   -0.000145
    11  Mg   0.001306
    12  H    0.000020
    13  H    0.509005
 Mulliken charges:
               1
     1  C   -0.382438
     2  C   -0.164366
     3  C   -0.163834
     4  C   -0.382669
     5  C    0.263959
     6  C    0.263869
     7  O   -0.506268
     8  O   -0.506130
     9  H    0.122000
    10  H    0.122000
    11  Mg   1.078593
    12  H    0.127644
    13  H    0.127640
    14  H    0.000000
    15  H    0.000000
 Sum of Mulliken charges =  -0.00000
 Mulliken charges with hydrogens summed into heavy atoms:
               1
     1  C   -0.254794
     2  C   -0.042366
     3  C   -0.041834
     4  C   -0.255029
     5  C    0.263959
     6  C    0.263869
     7  O   -0.506268
     8  O   -0.506130
    11  Mg   1.078593
         Mulliken charges condensed to fragments:
      1     -0.000000
      2      0.000000
 Electronic spatial extent (au):  <R**2>=           1145.2891
 Charge=             -0.0000 electrons
 Dipole moment (field-independent basis, Debye):
    X=              8.9236    Y=             -0.0005    Z=              0.0000  Tot=              8.9236
 Quadrupole moment (field-independent basis, Debye-Ang):
   XX=            -20.5715   YY=            -63.7750   ZZ=            -56.9385
   XY=             -0.0016   XZ=              0.0000   YZ=             -0.0000
 Traceless Quadrupole moment (field-independent basis, Debye-Ang):
   XX=             26.5235   YY=            -16.6800   ZZ=             -9.8435
   XY=             -0.0016   XZ=              0.0000   YZ=             -0.0000
 Octapole moment (field-independent basis, Debye-Ang**2):
  XXX=            163.8479  YYY=             -0.0029  ZZZ=             -0.0000  XYY=             -1.2223
  XXY=             -0.0081  XXZ=              0.0000  XZZ=             32.4459  YZZ=             -0.0008
  YYZ=              0.0000  XYZ=              0.0000
 Hexadecapole moment (field-independent basis, Debye-Ang**3):
 XXXX=           -600.5642 YYYY=           -468.8764 ZZZZ=            -67.6493 XXXY=             -0.0202
 XXXZ=              0.0001 YYYX=             -0.0049 YYYZ=             -0.0000 ZZZX=              0.0001
 ZZZY=             -0.0000 XXYY=           -243.4036 XXZZ=           -181.5295 YYZZ=            -97.1217
 XXYZ=              0.0000 YYXZ=              0.0000 ZZXY=             -0.0017
 N-N= 4.473316166658D+02 E-N=-2.266119296849D+03  KE= 5.782281912953D+02
 CPIOFr:  IOpCl= 0 IRwI=-1 IRwCP=  731 ICalc=  3 LCPTot=       91764 Len1MO=      239696 IndFrg=     1050548
 Counterpoise: doing calculation for fragment   2 using the basis set of the fragment.
 Basis read from rwf:  (5D, 7F)
 There are    12 symmetry adapted cartesian basis functions of A   symmetry.
 There are    12 symmetry adapted basis functions of A   symmetry.
    12 basis functions,    16 primitive gaussians,    12 cartesian basis functions
     1 alpha electrons        1 beta electrons
       nuclear repulsion energy         0.7079255909 Hartrees.
 NAtoms=   15 NActive=    2 NUniq=    2 SFac= 1.00D+00 NAtFMM=   60 NAOKFM=F Big=F
 Integral buffers will be    131072 words long.
 Raffenetti 1 integral format.
 Two-electron integral symmetry is turned on.
 One-electron integrals computed using PRISM.
 NBasis=    12 RedAO= T EigKep=  1.69D-02  NBF=    12
 NBsUse=    12 1.00D-06 EigRej= -1.00D+00 NBFU=    12
 ExpMin= 1.03D-01 ExpMax= 3.39D+01 ExpMxC= 3.39D+01 IAcc=3 IRadAn=         5 AccDes= 0.00D+00
 Harris functional with IExCor=  205 and IRadAn=       5 diagonalized for initial guess.
 HarFok:  IExCor=  205 AccDes= 0.00D+00 IRadAn=         5 IDoV= 1 UseB2=F ITyADJ=14
 ICtDFT=  3500011 ScaDFX=  1.000000  1.000000  1.000000  1.000000
 FoFCou: FMM=F IPFlag=           0 FMFlag=      100000 FMFlg1=           0
         NFxFlg=           0 DoJE=T BraDBF=F KetDBF=T FulRan=T
         wScrn=  0.000000 ICntrl=       500 IOpCl=  0 I1Cent=   200000004 NGrid=           0
         NMat0=    1 NMatS0=      1 NMatT0=    0 NMatD0=    1 NMtDS0=    0 NMtDT0=    0
 Petite list used in FoFCou.
 Keep R1 ints in memory in canonical form, NReq=6409112.
 Requested convergence on RMS density matrix=1.00D-08 within 128 cycles.
 Requested convergence on MAX density matrix=1.00D-06.
 Requested convergence on             energy=1.00D-06.
 No special actions if energy rises.
 SCF Done:  E(RHF) =  -1.13238957410     A.U. after    6 cycles
            NFock=  6  Conv=0.28D-10     -V/T= 2.0151
 Range of M.O.s used for correlation:     1    12
 NBasis=    12 NAE=     1 NBE=     1 NFC=     0 NFV=     0
 NROrb=     12 NOA=     1 NOB=     1 NVA=    11 NVB=    11
 Fully in-core method, ICMem=     6015012.
 JobTyp=1 Pass  1 fully in-core, NPsUse= 32.
 Spin components of T(2) and E(2):
     alpha-alpha T2 =       0.0000000000D+00 E2=      0.0000000000D+00
     alpha-beta  T2 =       0.9149313300D-02 E2=     -0.2782523410D-01
     beta-beta   T2 =       0.0000000000D+00 E2=      0.0000000000D+00
 ANorm=    0.1004564241D+01
 E2 =    -0.2782523410D-01 EUMP2 =    -0.11602148082023D+01

 **********************************************************************

            Population analysis using the SCF Density.

 **********************************************************************

 Orbital symmetries:
       Occupied  (A)
       Virtual   (A) (A) (A) (A) (A) (A) (A) (A) (A) (A) (A)
 The electronic state is 1-A.
 Alpha  occ. eigenvalues --   -0.59242
 Alpha virt. eigenvalues --    0.16536   0.30739   0.64189   1.33166   1.33166
 Alpha virt. eigenvalues --    1.81411   2.09330   2.09330   2.21759   2.71038
 Alpha virt. eigenvalues --    3.64404
          Condensed to atoms (all electrons):
              14         15
    14  H    0.581827   0.418173
    15  H    0.418173   0.581827
 Mulliken charges:
               1
     1  C    0.000000
     2  C    0.000000
     3  C    0.000000
     4  C    0.000000
     5  C    0.000000
     6  C    0.000000
     7  O    0.000000
     8  O    0.000000
     9  H    0.000000
    10  H    0.000000
    11  Mg   0.000000
    12  H    0.000000
    13  H    0.000000
    14  H    0.000000
    15  H   -0.000000
 Sum of Mulliken charges =  -0.00000
 Mulliken charges with hydrogens summed into heavy atoms:
               1
     1  C    0.000000
     2  C    0.000000
     3  C    0.000000
     4  C    0.000000
     5  C    0.000000
     6  C    0.000000
     7  O    0.000000
     8  O    0.000000
    11  Mg  -0.000000
         Mulliken charges condensed to fragments:
      1      0.000000
      2     -0.000000
 Electronic spatial extent (au):  <R**2>=            153.1738
 Charge=             -0.0000 electrons
 Dipole moment (field-independent basis, Debye):
    X=             -0.0000    Y=              0.0000    Z=              0.0000  Tot=              0.0000
 Quadrupole moment (field-independent basis, Debye-Ang):
   XX=             -2.0918   YY=             -2.0918   ZZ=             -1.4960
   XY=              0.0000   XZ=              0.0000   YZ=              0.0000
 Traceless Quadrupole moment (field-independent basis, Debye-Ang):
   XX=             -0.1986   YY=             -0.1986   ZZ=              0.3972
   XY=              0.0000   XZ=              0.0000   YZ=              0.0000
 Octapole moment (field-independent basis, Debye-Ang**2):
  XXX=            -28.5623  YYY=              0.0010  ZZZ=             -0.0000  XYY=             -9.5208
  XXY=              0.0003  XXZ=             -0.0000  XZZ=             -6.8090  YZZ=              0.0002
  YYZ=             -0.0000  XYZ=              0.0000
 Hexadecapole moment (field-independent basis, Debye-Ang**3):
 XXXX=           -262.0945 YYYY=             -2.0951 ZZZZ=             -2.9611 XXXY=              0.0047
 XXXZ=             -0.0000 YYYX=              0.0047 YYYZ=              0.0000 ZZZX=             -0.0000
 ZZZY=              0.0000 XXYY=            -44.0316 XXZZ=            -31.8510 YYZZ=             -0.8605
 XXYZ=              0.0000 YYXZ=             -0.0000 ZZXY=              0.0011
 N-N= 7.079255909266D-01 E-N=-3.611344832093D+00  KE= 1.115546843106D+00
 CPIOFr:  IOpCl= 0 IRwI=-1 IRwCP=  731 ICalc=  4 LCPTot=       91764 Len1MO=      239696 IndFrg=     1290244
 CPIOFr:  IOpCl= 0 IRwI=-2 IRwCP=  731 ICalc=  0 LCPTot=       91764 Len1MO=      239696 IndFrg=      331460
 Counterpoise corrected energy =    -581.402521942660
                   BSSE energy =       0.001039759226
              sum of fragments =    -581.394334089996
           complexation energy =      -5.79 kcal/mole (raw)
           complexation energy =      -5.14 kcal/mole (corrected)
 1\1\GINC-SG11\SP\RMP2-FC\6-311+G(d,p)\C6H6Mg1O2\YUC\15-Sep-2024\0\\# M
 P2/6-311+g(d,p) counterpoise=2\\one\\0,1\C,0,-0.028101,1.399708,0.\C,0
 ,-1.241115,0.70037,0.\C,0,-1.241131,-0.700436,0.\C,0,-0.028243,-1.3998
 02,0.\C,0,1.196641,-0.718172,0.\C,0,1.196753,0.718318,0.\O,0,2.379744,
 1.409079,-0.000001\O,0,2.379651,-1.408981,-0.000001\H,0,-2.179398,-1.2
 49295,0.\H,0,-2.179326,1.249273,0.\Mg,0,3.616115,0.000004,0.\H,0,-0.00
 2183,2.486765,0.\H,0,-0.002202,-2.486834,0.\H,0,5.806397,0.000002,0.37
 3752\H,0,5.806397,0.000002,-0.373752\\Version=ES64L-G16RevB.01\State=1
 -A\HF=-1.1323896\MP2=-1.1602148\RMSD=2.751e-11\PG=C01 [X(C6H6Mg1O2)]\\
 @


 Change starts when someone sees the next step.
                            -- William Drayton
 Job cpu time:       0 days  0 hours 18 minutes  5.0 seconds.
 Elapsed time:       0 days  0 hours  0 minutes 35.1 seconds.
 File lengths (MBytes):  RWF=     65 Int=      0 D2E=      0 Chk=     15 Scr=      2
 Normal termination of Gaussian 16 at Sun Sep 15 23:46:19 2024.
