 vasp.6.3.2 27Jun22 (build Sep  5 2022 18:50:32) complex                         
 executed on              LinuxNV date 2023.01.26  05:33:09
 running    4 mpi-ranks, with   20 threads/rank
 distrk:  each k-point on    4 cores,    1 groups
 distr:  one band on NCORE=   1 cores,    4 groups


--------------------------------------------------------------------------------------------------------


 INCAR:
   ISPIN = 2        (Spin polarised DFT)
   LORBIT = 11
   LREAL = .FALSE.       (Projection operators: automatic)
   ENCUT = 520        (Cut-off energy for plane wave basis set, in eV)
   PREC = Accurate   (Precision level: Normal or Accurate, set Accurate when perform structure lattice relaxation calculation)
   LWAVE = .TRUE.        (Write WAVECAR or not)
   LCHARG = .TRUE.        (Write CHGCAR or not)
   ADDGRID = .TRUE.        (Increase grid, helps GGA convergence)
   ALGO = All
   IVDW = 12
   ISMEAR = -1            (Gaussian smearing, metals:1)
   SIGMA = 0.05         (Smearing value in eV, metals:0.2)
   NELM = 150           (Max electronic SCF steps)
   NELMIN = 6            (Min electronic SCF steps)
   EDIFF = 1E-04        (SCF energy convergence, in eV)
   NSW = 100          (Max ionic steps)
   IBRION = 2            (Algorithm: 0-MD, 1-Quasi-New, 2-CG)
   ISIF = 2            (Stress/relaxation: 2-Ions, 3-Shape/Ions/V, 4-Shape/Ions)
   EDIFFG = -1E-02        (Ionic convergence, eV/AA)

 POTCAR:    PAW_PBE H 15Jun2001                   
 POTCAR:    PAW_PBE O 08Apr2002                   
 -----------------------------------------------------------------------------
|                                                                             |
|           W    W    AA    RRRRR   N    N  II  N    N   GGGG   !!!           |
|           W    W   A  A   R    R  NN   N  II  NN   N  G    G  !!!           |
|           W    W  A    A  R    R  N N  N  II  N N  N  G       !!!           |
|           W WW W  AAAAAA  RRRRR   N  N N  II  N  N N  G  GGG   !            |
|           WW  WW  A    A  R   R   N   NN  II  N   NN  G    G                |
|           W    W  A    A  R    R  N    N  II  N    N   GGGG   !!!           |
|                                                                             |
|     You use a magnetic or noncollinear calculation, but did not specify     |
|     the initial magnetic moment with the MAGMOM tag. Note that a            |
|     default of 1 will be used for all atoms. This ferromagnetic setup       |
|     may break the symmetry of the crystal, in particular it may rule        |
|     out finding an antiferromagnetic solution. Thence, we recommend         |
|     setting the initial magnetic moment manually or verifying carefully     |
|     that this magnetic setup is desired.                                    |
|                                                                             |
 -----------------------------------------------------------------------------

 POTCAR:    PAW_PBE H 15Jun2001                   
   SHA256 =  030f79b5d3ab3cf0e668861823c8fb652ff669f3e15e46930bd03bfd63a607b6 H/POTCAR              
   COPYR  = (c) Copyright 15Jun2001 Georg Kresse                                                    
   COPYR  = This file is part of the software VASP. Any use, copying, and all other rights are regul
   COPYR  = If you do not have a valid VASP license, you may not use, copy or distribute this file. 
   VRHFIN =H: ultrasoft test                                                                        
   LEXCH  = PE                                                                                      
   EATOM  =    12.4884 eV,    0.9179 Ry                                                             
                                                                                                    
   TITEL  = PAW_PBE H 15Jun2001                                                                     
   LULTRA =        F    use ultrasoft PP ?                                                          
   IUNSCR =        0    unscreen: 0-lin 1-nonlin 2-no                                               
   RPACOR =    0.000    partial core radius                                                         
   POMASS =    1.000; ZVAL   =    1.000    mass and valenz                                          
   RCORE  =    1.100    outmost cutoff radius                                                       
   RWIGS  =    0.700; RWIGS  =    0.370    wigner-seitz radius (au A)                               
   ENMAX  =  250.000; ENMIN  =  200.000 eV                                                          
   RCLOC  =    0.701    cutoff for local pot                                                        
   LCOR   =        T    correct aug charges                                                         
   LPAW   =        T    paw PP                                                                      
   EAUG   =  400.000                                                                                
   RMAX   =    1.123    core radius for proj-oper                                                   
   RAUG   =    1.200    factor for augmentation sphere                                              
   RDEP   =    1.112    radius for radial grids                                                     
   RDEPT  =    0.926    core radius for aug-charge                                                  
                                                                                                    
   Atomic configuration                                                                             
    2 entries                                                                                       
     n  l   j            E        occ.                                                              
     1  0  0.50        -6.4927   1.0000                                                             
     2  1  0.50        -3.4015   0.0000                                                             
   Description                                                                                      
     l       E           TYP  RCUT    TYP  RCUT                                                     
     0     -6.4927494     23  1.100                                                                 
     0      6.8029130     23  1.100                                                                 
     1     -4.0817478     23  1.100                                                                 
  local pseudopotential read in
  atomic valenz-charges read in
  non local Contribution for L=            0  read in
    real space projection operators read in
  non local Contribution for L=            0  read in
    real space projection operators read in
  non local Contribution for L=            1  read in
    real space projection operators read in
    PAW grid and wavefunctions read in
 
   number of l-projection  operators is LMAX  =            3
   number of lm-projection operators is LMMAX =            5
 
 POTCAR:    PAW_PBE O 08Apr2002                   
   SHA256 =  818f92134a0a090dccd8ba1447fa70422a3b330e708bb4f08108d8ae51209ddf O/POTCAR              
   COPYR  = (c) Copyright 08Apr2002 Georg Kresse                                                    
   COPYR  = This file is part of the software VASP. Any use, copying, and all other rights are regul
   COPYR  = If you do not have a valid VASP license, you may not use, copy or distribute this file. 
   VRHFIN =O: s2p4                                                                                  
   LEXCH  = PE                                                                                      
   EATOM  =   432.3788 eV,   31.7789 Ry                                                             
                                                                                                    
   TITEL  = PAW_PBE O 08Apr2002                                                                     
   LULTRA =        F    use ultrasoft PP ?                                                          
   IUNSCR =        1    unscreen: 0-lin 1-nonlin 2-no                                               
   RPACOR =    1.200    partial core radius                                                         
   POMASS =   16.000; ZVAL   =    6.000    mass and valenz                                          
   RCORE  =    1.520    outmost cutoff radius                                                       
   RWIGS  =    1.550; RWIGS  =    0.820    wigner-seitz radius (au A)                               
   ENMAX  =  400.000; ENMIN  =  300.000 eV                                                          
   ICORE  =        2    local potential                                                             
   LCOR   =        T    correct aug charges                                                         
   LPAW   =        T    paw PP                                                                      
   EAUG   =  605.392                                                                                
   DEXC   =    0.000                                                                                
   RMAX   =    1.553    core radius for proj-oper                                                   
   RAUG   =    1.300    factor for augmentation sphere                                              
   RDEP   =    1.550    radius for radial grids                                                     
   RDEPT  =    1.329    core radius for aug-charge                                                  
                                                                                                    
   Atomic configuration                                                                             
    4 entries                                                                                       
     n  l   j            E        occ.                                                              
     1  0  0.50      -514.6923   2.0000                                                             
     2  0  0.50       -23.9615   2.0000                                                             
     2  1  0.50        -9.0305   4.0000                                                             
     3  2  1.50        -9.5241   0.0000                                                             
   Description                                                                                      
     l       E           TYP  RCUT    TYP  RCUT                                                     
     0    -23.9615318     23  1.200                                                                 
     0     -9.5240782     23  1.200                                                                 
     1     -9.0304911     23  1.520                                                                 
     1      8.1634956     23  1.520                                                                 
     2     -9.5240782      7  1.500                                                                 
  local pseudopotential read in
  partial core-charges read in
  partial kinetic energy density read in
  kinetic energy density of atom read in
  atomic valenz-charges read in
  non local Contribution for L=            0  read in
    real space projection operators read in
  non local Contribution for L=            0  read in
    real space projection operators read in
  non local Contribution for L=            1  read in
    real space projection operators read in
  non local Contribution for L=            1  read in
    real space projection operators read in
    PAW grid and wavefunctions read in
 
   number of l-projection  operators is LMAX  =            4
   number of lm-projection operators is LMMAX =            8
 
  PAW_PBE H 15Jun2001                   :
 energy of atom  1       EATOM=  -12.4884
 kinetic energy error for atom=    0.0014 (will be added to EATOM!!)
  PAW_PBE O 08Apr2002                   :
 energy of atom  2       EATOM= -432.3788
 kinetic energy error for atom=    0.0208 (will be added to EATOM!!)
 
 
 POSCAR: cif2pos.py
  positions in direct lattice
  velocities in cartesian coordinates
 exchange correlation table for  LEXCH =        8
   RHO(1)=    0.500       N(1)  =     2000
   RHO(2)=  100.500       N(2)  =     4000
 


--------------------------------------------------------------------------------------------------------


 ion  position               nearest neighbor table
   1  0.482  0.634  0.499-   3 0.97
   2  0.564  0.624  0.537-   3 0.97
   3  0.480  0.631  0.529-   1 0.97   2 0.97
 
  LATTYP: Found a simple orthorhombic cell.
 ALAT       =    11.1038000000
 B/A-ratio  =     1.0086817126
 C/A-ratio  =     2.9210360417
  
  Lattice vectors:
  
 A1 = (  11.1038000000,   0.0000000000,   0.0000000000)
 A2 = (   0.0000000000,  11.2002000000,   0.0000000000)
 A3 = (   0.0000000000,   0.0000000000,  32.4346000000)


Analysis of symmetry for initial positions (statically):
=====================================================================
 Subroutine PRICEL returns:
 Original cell was already a primitive cell.
 

 Routine SETGRP: Setting up the symmetry group for a 
 simple orthorhombic supercell.


 Subroutine GETGRP returns: Found  1 space group operations
 (whereof  1 operations were pure point group operations)
 out of a pool of  8 trial point group operations.


The static configuration has the point symmetry C_1 .


Analysis of symmetry for dynamics (positions and initial velocities):
=====================================================================
 Subroutine PRICEL returns:
 Original cell was already a primitive cell.
 

 Routine SETGRP: Setting up the symmetry group for a 
 simple orthorhombic supercell.


 Subroutine GETGRP returns: Found  1 space group operations
 (whereof  1 operations were pure point group operations)
 out of a pool of  8 trial point group operations.


The dynamic configuration has the point symmetry C_1 .


Analysis of structural, dynamic, and magnetic symmetry:
=====================================================================
 Subroutine PRICEL returns:
 Original cell was already a primitive cell.
 

 Routine SETGRP: Setting up the symmetry group for a 
 simple orthorhombic supercell.


 Subroutine GETGRP returns: Found  1 space group operations
 (whereof  1 operations were pure point group operations)
 out of a pool of  8 trial point group operations.


The overall configuration has the point symmetry C_1 .


 Subroutine INISYM returns: Found  1 space group operations
 (whereof  1 operations are pure point group operations),
 and found     1 'primitive' translations


----------------------------------------------------------------------------------------

                                     Primitive cell                                     

  volume of cell :    4033.7219

  direct lattice vectors                    reciprocal lattice vectors
    11.103800000  0.000000000  0.000000000     0.090059259  0.000000000  0.000000000
     0.000000000 11.200200000  0.000000000     0.000000000  0.089284120  0.000000000
     0.000000000  0.000000000 32.434600000     0.000000000  0.000000000  0.030831273

  length of vectors
    11.103800000 11.200200000 32.434600000     0.090059259  0.089284120  0.030831273

  position of ions in fractional coordinates (direct lattice)
     0.482394071  0.633541835  0.499105888
     0.563532346  0.623610447  0.537320661
     0.479743583  0.631157719  0.529043451

  ion indices of the primitive-cell ions
   primitive index   ion index
                 1           1
                 2           2
                 3           3

----------------------------------------------------------------------------------------

 
 
 KPOINTS: K-Spacing Value to Generate K-Mesh: 0.03

Automatic generation of k-mesh.
 Grid dimensions read from file:
 generate k-points for:    1    1    1

 Generating k-lattice:

  Cartesian coordinates                     Fractional coordinates (reciprocal lattice)
     0.090059259  0.000000000  0.000000000     1.000000000  0.000000000  0.000000000
     0.000000000  0.089284120  0.000000000     0.000000000  1.000000000  0.000000000
     0.000000000  0.000000000  0.030831273     0.000000000  0.000000000  1.000000000

  Length of vectors
     0.090059259  0.089284120  0.030831273

  Shift w.r.t. Gamma in fractional coordinates (k-lattice)
     0.000000000  0.000000000  0.000000000

 
 Subroutine IBZKPT returns following result:
 ===========================================
 
 Found      1 irreducible k-points:
 
 Following reciprocal coordinates:
            Coordinates               Weight
  0.000000  0.000000  0.000000      1.000000
 
 Following cartesian coordinates:
            Coordinates               Weight
  0.000000  0.000000  0.000000      1.000000
 


--------------------------------------------------------------------------------------------------------




 Dimension of arrays:
   k-points           NKPTS =      1   k-points in BZ     NKDIM =      1   number of bands    NBANDS=     12
   number of dos      NEDOS =    301   number of ions     NIONS =      3
   non local maximal  LDIM  =      4   non local SUM 2l+1 LMDIM =      8
   total plane-waves  NPLWV = ******
   max r-space proj   IRMAX =      1   max aug-charges    IRDMAX=  45583
   dimension x,y,z NGX =    84 NGY =   84 NGZ =  250
   dimension x,y,z NGXF=   168 NGYF=  168 NGZF=  500
   support grid    NGXF=   336 NGYF=  336 NGZF= 1000
   ions per type =               2   1
   NGX,Y,Z   is equivalent  to a cutoff of  12.58, 12.47, 12.81 a.u.
   NGXF,Y,Z  is equivalent  to a cutoff of  25.15, 24.94, 25.63 a.u.

 SYSTEM =  unknown system                          
 POSCAR =  cif2pos.py                              

 Startparameter for this run:
   NWRITE =      2    write-flag & timer
   PREC   = accura    normal or accurate (medium, high low for compatibility)
   ISTART =      0    job   : 0-new  1-cont  2-samecut
   ICHARG =      2    charge: 1-file 2-atom 10-const
   ISPIN  =      2    spin polarized calculation?
   LNONCOLLINEAR =      F non collinear calculations
   LSORBIT =      F    spin-orbit coupling
   INIWAV =      1    electr: 0-lowe 1-rand  2-diag
   LASPH  =      F    aspherical Exc in radial PAW
 Electronic Relaxation 1
   ENCUT  =  520.0 eV  38.22 Ry    6.18 a.u.  20.65 20.82 60.31*2*pi/ulx,y,z
   ENINI  =  520.0     initial cutoff
   ENAUG  =  605.4 eV  augmentation charge cutoff
   NELM   =    150;   NELMIN=  6; NELMDL= -5     # of ELM steps 
   EDIFF  = 0.1E-03   stopping-criterion for ELM
   LREAL  =      F    real-space projection
   NLSPLINE    = F    spline interpolate recip. space projectors
   LCOMPAT=      F    compatible to vasp.4.4
   GGA_COMPAT  = T    GGA compatible to vasp.4.4-vasp.4.6
   LMAXPAW     = -100 max onsite density
   LMAXMIX     =    2 max onsite mixed and CHGCAR
   VOSKOWN=      0    Vosko Wilk Nusair interpolation
   ROPT   =    0.00000   0.00000
 Ionic relaxation
   EDIFFG = -.1E-01   stopping-criterion for IOM
   NSW    =    100    number of steps for IOM
   NBLOCK =      1;   KBLOCK =    100    inner block; outer block 
   IBRION =      2    ionic relax: 0-MD 1-quasi-New 2-CG
   NFREE  =      1    steps in history (QN), initial steepest desc. (CG)
   ISIF   =      2    stress and relaxation
   IWAVPR =     11    prediction:  0-non 1-charg 2-wave 3-comb
   ISYM   =      2    0-nonsym 1-usesym 2-fastsym
   LCORR  =      T    Harris-Foulkes like correction to forces

   POTIM  = 0.5000    time-step for ionic-motion
   TEIN   =    0.0    initial temperature
   TEBEG  =    0.0;   TEEND  =   0.0 temperature during run
   SMASS  =  -3.00    Nose mass-parameter (am)
   estimated Nose-frequenzy (Omega)   =  0.10E-29 period in steps = 0.13E+47 mass=  -0.282E-26a.u.
   SCALEE = 1.0000    scale energy and forces
   NPACO  =    256;   APACO  = 10.0  distance and # of slots for P.C.
   PSTRESS=    0.0 pullay stress

  Mass of Ions in am
   POMASS =   1.00 16.00
  Ionic Valenz
   ZVAL   =   1.00  6.00
  Atomic Wigner-Seitz radii
   RWIGS  =  -1.00 -1.00
  virtual crystal weights 
   VCA    =   1.00  1.00
   NELECT =       8.0000    total number of electrons
   NUPDOWN=      -1.0000    fix difference up-down

 DOS related values:
   EMIN   =  10.00;   EMAX   =-10.00  energy-range for DOS
   EFERMI =   0.00
   ISMEAR =    -1;   SIGMA  =   0.05  broadening in eV -4-tet -1-fermi 0-gaus

 Electronic relaxation 2 (details)
   IALGO  =     58    algorithm
   LDIAG  =      T    sub-space diagonalisation (order eigenvalues)
   LSUBROT=      F    optimize rotation matrix (better conditioning)
   TURBO    =      0    0=normal 1=particle mesh
   IRESTART =      0    0=no restart 2=restart with 2 vectors
   NREBOOT  =      0    no. of reboots
   NMIN     =      0    reboot dimension
   EREF     =   0.00    reference energy to select bands
   IMIX   =      4    mixing-type and parameters
     AMIX     =   0.40;   BMIX     =  1.00
     AMIX_MAG =   1.60;   BMIX_MAG =  1.00
     AMIN     =   0.10
     WC   =   100.;   INIMIX=   1;  MIXPRE=   1;  MAXMIX= -45

 Intra band minimization:
   WEIMIN = 0.0010     energy-eigenvalue tresh-hold
   EBREAK =  0.21E-05  absolut break condition
   DEPER  =   0.30     relativ break condition  

   TIME   =   0.40     timestep for ELM

  volume/ion in A,a.u.               =    1344.57      9073.63
  Fermi-wavevector in a.u.,A,eV,Ry     =   0.205685  0.388688  0.575613  0.042306
  Thomas-Fermi vector in A             =   0.967064
 
 Write flags
   LWAVE        =      T    write WAVECAR
   LDOWNSAMPLE  =      F    k-point downsampling of WAVECAR
   LCHARG       =      T    write CHGCAR
   LVTOT        =      F    write LOCPOT, total local potential
   LVHAR        =      F    write LOCPOT, Hartree potential only
   LELF         =      F    write electronic localiz. function (ELF)
   LORBIT       =     11    0 simple, 1 ext, 2 COOP (PROOUT), +10 PAW based schemes


 Dipole corrections
   LMONO  =      F    monopole corrections only (constant potential shift)
   LDIPOL =      F    correct potential (dipole corrections)
   IDIPOL =      0    1-x, 2-y, 3-z, 4-all directions 
   EPSILON=  1.0000000 bulk dielectric constant

 Exchange correlation treatment:
   GGA     =    --    GGA type
   LEXCH   =     8    internal setting for exchange type
   LIBXC   =     F    Libxc                    
   VOSKOWN =     0    Vosko Wilk Nusair interpolation
   LHFCALC =     F    Hartree Fock is set to
   LHFONE  =     F    Hartree Fock one center treatment
   AEXX    =    0.0000 exact exchange contribution

 Linear response parameters
   LEPSILON=     F    determine dielectric tensor
   LRPA    =     F    only Hartree local field effects (RPA)
   LNABLA  =     F    use nabla operator in PAW spheres
   LVEL    =     F    velocity operator in full k-point grid
   CSHIFT  =0.1000    complex shift for real part using Kramers Kronig
   OMEGAMAX=  -1.0    maximum frequency
   DEG_THRESHOLD= 0.2000000E-02 threshold for treating states as degnerate
   RTIME   =   -0.100 relaxation time in fs
  (WPLASMAI=    0.000 imaginary part of plasma frequency in eV, 0.658/RTIME)
   DFIELD  = 0.0000000 0.0000000 0.0000000 field for delta impulse in time
 
  Optional k-point grid parameters
   LKPOINTS_OPT  =     F    use optional k-point grid
   KPOINTS_OPT_MODE=     1    mode for optional k-point grid
 
 Orbital magnetization related:
   ORBITALMAG=     F  switch on orbital magnetization
   LCHIMAG   =     F  perturbation theory with respect to B field
   DQ        =  0.001000  dq finite difference perturbation B field
   LLRAUG    =     F  two centre corrections for induced B field



--------------------------------------------------------------------------------------------------------


 conjugate gradient relaxation of ions
 charge density and potential will be updated during run
 spin polarized calculation
 Conjugate gradient for all bands (Freysoldt, et al. PRB 79, 241103 (2009))
 preconditioned conjugated gradient                                        
 perform sub-space diagonalisation
    before iterative eigenvector-optimisation
 modified Broyden-mixing scheme, WC =      100.0
 initial mixing is a Kerker type mixing with AMIX =  0.4000 and BMIX =      1.0000
 Hartree-type preconditioning will be used
 using additional bands             8
 reciprocal scheme for non local part
 use partial core corrections
 no Harris-corrections to forces 
 use gradient corrections 
 use of overlap-Matrix (Vanderbilt PP)
 Fermi-smearing in eV        SIGMA  =   0.05


--------------------------------------------------------------------------------------------------------


  energy-cutoff  :      520.00
  volume of cell :     4033.72
      direct lattice vectors                 reciprocal lattice vectors
    11.103800000  0.000000000  0.000000000     0.090059259  0.000000000  0.000000000
     0.000000000 11.200200000  0.000000000     0.000000000  0.089284120  0.000000000
     0.000000000  0.000000000 32.434600000     0.000000000  0.000000000  0.030831273

  length of vectors
    11.103800000 11.200200000 32.434600000     0.090059259  0.089284120  0.030831273


 
 k-points in units of 2pi/SCALE and weight: K-Spacing Value to Generate K-Mesh: 0.03
   0.00000000  0.00000000  0.00000000       1.000
 
 k-points in reciprocal lattice and weights: K-Spacing Value to Generate K-Mesh: 0.03
   0.00000000  0.00000000  0.00000000       1.000
 
 position of ions in fractional coordinates (direct lattice) 
   0.48239407  0.63354183  0.49910589
   0.56353235  0.62361045  0.53732066
   0.47974358  0.63115772  0.52904345
 
 position of ions in cartesian coordinates  (Angst):
   5.35640729  7.09579526 16.18829982
   6.25735046  6.98456173 17.42778072
   5.32697680  7.06909268 17.15931272
 


--------------------------------------------------------------------------------------------------------


 k-point   1 :   0.0000 0.0000 0.0000  plane waves:  108581

 maximum and minimum number of plane-waves per node :    108581   108581

 maximum number of plane-waves:    108581
 maximum index in each direction: 
   IXMAX=   20   IYMAX=   20   IZMAX=   60
   IXMIN=  -20   IYMIN=  -20   IZMIN=  -60


 serial   3D FFT for wavefunctions
 parallel 3D FFT for charge:
    minimum data exchange during FFTs selected (reduces bandwidth)


 total amount of memory used by VASP MPI-rank0  1026493. kBytes
=======================================================================

   base      :      30000. kBytes
   nonl-proj :      19110. kBytes
   fftplans  :     521602. kBytes
   grid      :     424488. kBytes
   one-center:         18. kBytes
   wavefun   :      31275. kBytes
 
     INWAV:  cpu time      0.0001: real time      0.0003
 Broyden mixing: mesh for mixing (old mesh)
   NGX = 41   NGY = 41   NGZ =121
  (NGX  =168   NGY  =168   NGZ  =500)
  gives a total of 203401 points

 initial charge density was supplied:
 charge density of overlapping atoms calculated
 number of electron       8.0000000 magnetization       3.0000000
 keeping initial charge density in first step


--------------------------------------------------------------------------------------------------------


 Maximum index for augmentation-charges         11008 (set IRDMAX)


--------------------------------------------------------------------------------------------------------


 First call to EWALD:  gamma=   0.111
 Maximum number of real-space cells 4x 4x 2
 Maximum number of reciprocal cells 2x 2x 5

    FEWALD:  cpu time      0.1679: real time      0.0506


--------------------------------------- Iteration      1(   1)  ---------------------------------------


    POTLOK:  cpu time      0.1598: real time      0.1905
    SETDIJ:  cpu time      1.7855: real time      1.4662
    TRIAL :  cpu time      0.1352: real time      0.3444
    CORREC:  cpu time      0.0003: real time      0.0003
    --------------------------------------------
      LOOP:  cpu time      2.1530: real time      2.0778

 eigenvalue-minimisations  :    64
 total energy-change (2. order) : 0.7379918E+02  (-0.1360429E+03)
 number of electron       8.0000000 magnetization       3.0000000
 augmentation part        8.0000000 magnetization       3.0000000

 Free energy of the ion-electron system (eV)
  ---------------------------------------------------
  alpha Z        PSCENC =         0.05559414
  Ewald energy   TEWEN  =       151.81383706
  -Hartree energ DENC   =      -510.84008200
  -exchange      EXHF   =         0.00000000
  -V(xc)+E(xc)   XCENC  =        32.99242475
  PAW double counting   =       349.99468356     -351.80531939
  entropy T*S    EENTRO =        -0.09631922
  eigenvalues    EBANDS =       -55.64756895
  atomic energy  EATOM  =       457.33192828
  ---------------------------------------------------
  free energy    TOTEN  =        73.79917823 eV

  energy without entropy =       73.89549745  energy(sigma->0) =       73.84733784


--------------------------------------------------------------------------------------------------------




--------------------------------------- Iteration      1(   2)  ---------------------------------------


    TRIAL :  cpu time      0.0694: real time      0.0685
    CORREC:  cpu time      0.0002: real time      0.0002
    --------------------------------------------
      LOOP:  cpu time      0.0697: real time      0.0693

 eigenvalue-minimisations  :    84
 total energy-change (2. order) :-0.6735854E+02  (-0.6414627E+02)
 number of electron       8.0000000 magnetization       3.0000000
 augmentation part        8.0000000 magnetization       3.0000000

 Free energy of the ion-electron system (eV)
  ---------------------------------------------------
  alpha Z        PSCENC =         0.05559414
  Ewald energy   TEWEN  =       151.81383706
  -Hartree energ DENC   =      -510.84008200
  -exchange      EXHF   =         0.00000000
  -V(xc)+E(xc)   XCENC  =        32.99242475
  PAW double counting   =       349.99468356     -351.80531939
  entropy T*S    EENTRO =        -0.00000000
  eigenvalues    EBANDS =      -123.10243256
  atomic energy  EATOM  =       457.33192828
  ---------------------------------------------------
  free energy    TOTEN  =         6.44063384 eV

  energy without entropy =        6.44063384  energy(sigma->0) =        6.44063384


--------------------------------------------------------------------------------------------------------




--------------------------------------- Iteration      1(   3)  ---------------------------------------


    TRIAL :  cpu time      0.0590: real time      0.0580
    CORREC:  cpu time      0.0002: real time      0.0002
    --------------------------------------------
      LOOP:  cpu time      0.0594: real time      0.0588

 eigenvalue-minimisations  :    64
 total energy-change (2. order) :-0.1864052E+02  (-0.1859802E+02)
 number of electron       8.0000000 magnetization       3.0000000
 augmentation part        8.0000000 magnetization       3.0000000

 Free energy of the ion-electron system (eV)
  ---------------------------------------------------
  alpha Z        PSCENC =         0.05559414
  Ewald energy   TEWEN  =       151.81383706
  -Hartree energ DENC   =      -510.84008200
  -exchange      EXHF   =         0.00000000
  -V(xc)+E(xc)   XCENC  =        32.99242475
  PAW double counting   =       349.99468356     -351.80531939
  entropy T*S    EENTRO =        -0.00000000
  eigenvalues    EBANDS =      -141.74294980
  atomic energy  EATOM  =       457.33192828
  ---------------------------------------------------
  free energy    TOTEN  =       -12.19988340 eV

  energy without entropy =      -12.19988340  energy(sigma->0) =      -12.19988340


--------------------------------------------------------------------------------------------------------




--------------------------------------- Iteration      1(   4)  ---------------------------------------


    TRIAL :  cpu time      0.0495: real time      0.0487
    CORREC:  cpu time      0.0002: real time      0.0002
    --------------------------------------------
      LOOP:  cpu time      0.0498: real time      0.0494

 eigenvalue-minimisations  :    52
 total energy-change (2. order) :-0.7154940E+00  (-0.7153812E+00)
 number of electron       8.0000000 magnetization       3.0000000
 augmentation part        8.0000000 magnetization       3.0000000

 Free energy of the ion-electron system (eV)
  ---------------------------------------------------
  alpha Z        PSCENC =         0.05559414
  Ewald energy   TEWEN  =       151.81383706
  -Hartree energ DENC   =      -510.84008200
  -exchange      EXHF   =         0.00000000
  -V(xc)+E(xc)   XCENC  =        32.99242475
  PAW double counting   =       349.99468356     -351.80531939
  entropy T*S    EENTRO =        -0.00000000
  eigenvalues    EBANDS =      -142.45844379
  atomic energy  EATOM  =       457.33192828
  ---------------------------------------------------
  free energy    TOTEN  =       -12.91537739 eV

  energy without entropy =      -12.91537739  energy(sigma->0) =      -12.91537739


--------------------------------------------------------------------------------------------------------




--------------------------------------- Iteration      1(   5)  ---------------------------------------


    TRIAL :  cpu time      0.0550: real time      0.0542
    CORREC:  cpu time      0.0001: real time      0.0001
    CHARGE:  cpu time      1.5789: real time      1.4895
    --------------------------------------------
      LOOP:  cpu time      1.6343: real time      1.5444

 eigenvalue-minimisations  :    60
 total energy-change (2. order) :-0.5925908E-02  (-0.5925888E-02)
 number of electron       8.0000000 magnetization      -0.0000000
 augmentation part        0.8577123 magnetization      -0.0254587

 Free energy of the ion-electron system (eV)
  ---------------------------------------------------
  alpha Z        PSCENC =         0.05559414
  Ewald energy   TEWEN  =       151.81383706
  -Hartree energ DENC   =      -510.84008200
  -exchange      EXHF   =         0.00000000
  -V(xc)+E(xc)   XCENC  =        32.99242475
  PAW double counting   =       349.99468356     -351.80531939
  entropy T*S    EENTRO =        -0.00000000
  eigenvalues    EBANDS =      -142.46436970
  atomic energy  EATOM  =       457.33192828
  ---------------------------------------------------
  free energy    TOTEN  =       -12.92130330 eV

  energy without entropy =      -12.92130330  energy(sigma->0) =      -12.92130330


--------------------------------------------------------------------------------------------------------




--------------------------------------- Iteration      1(   6)  ---------------------------------------


    POTLOK:  cpu time      0.1252: real time      0.1227
    SETDIJ:  cpu time      1.6611: real time      1.4437
    TRIAL :  cpu time      0.0653: real time      0.0492
    CORREC:  cpu time      3.4277: real time      2.9714
    CHARGE:  cpu time      1.5639: real time      1.3936
    --------------------------------------------
      LOOP:  cpu time      6.8463: real time      5.9843

 eigenvalue-minimisations  :     0
 total energy-change (2. order) : 0.3375837E+01  (-0.3588917E+01)
 number of electron       8.0000000 magnetization      -0.0000000
 augmentation part        0.7307569 magnetization      -0.0201960

 Free energy of the ion-electron system (eV)
  ---------------------------------------------------
  alpha Z        PSCENC =         0.05559414
  Ewald energy   TEWEN  =       151.81383706
  -Hartree energ DENC   =      -600.64172830
  -exchange      EXHF   =         0.00000000
  -V(xc)+E(xc)   XCENC  =        36.95443346
  PAW double counting   =       629.33515971     -632.27929670
  entropy T*S    EENTRO =        -0.00000000
  eigenvalues    EBANDS =       -52.11539386
  atomic energy  EATOM  =       457.33192828
  ---------------------------------------------------
  free energy    TOTEN  =        -9.54546622 eV

  energy without entropy =       -9.54546622  energy(sigma->0) =       -9.54546622


--------------------------------------------------------------------------------------------------------




--------------------------------------- Iteration      1(   7)  ---------------------------------------


    POTLOK:  cpu time      0.1270: real time      0.1246
    SETDIJ:  cpu time      1.6133: real time      1.4188
    TRIAL :  cpu time      0.0617: real time      0.0471
    CORREC:  cpu time      3.3887: real time      2.9732
    CHARGE:  cpu time      1.5810: real time      1.3911
    --------------------------------------------
      LOOP:  cpu time      6.7746: real time      5.9578

 eigenvalue-minimisations  :     0
 total energy-change (2. order) :-0.3719540E+01  (-0.5568194E+00)
 number of electron       8.0000000 magnetization      -0.0000000
 augmentation part        0.6866036 magnetization      -0.0182322

 Free energy of the ion-electron system (eV)
  ---------------------------------------------------
  alpha Z        PSCENC =         0.05559414
  Ewald energy   TEWEN  =       151.81383706
  -Hartree energ DENC   =      -548.57828875
  -exchange      EXHF   =         0.00000000
  -V(xc)+E(xc)   XCENC  =        34.09187287
  PAW double counting   =       558.42671955     -560.78053520
  entropy T*S    EENTRO =        -0.00000000
  eigenvalues    EBANDS =      -105.62613414
  atomic energy  EATOM  =       457.33192828
  ---------------------------------------------------
  free energy    TOTEN  =       -13.26500620 eV

  energy without entropy =      -13.26500620  energy(sigma->0) =      -13.26500620


--------------------------------------------------------------------------------------------------------




--------------------------------------- Iteration      1(   8)  ---------------------------------------


    POTLOK:  cpu time      0.1232: real time      0.1209
    SETDIJ:  cpu time      1.5931: real time      1.3909
    TRIAL :  cpu time      0.0633: real time      0.0469
    CORREC:  cpu time      3.3689: real time      2.9661
    CHARGE:  cpu time      1.5516: real time      1.3868
    --------------------------------------------
      LOOP:  cpu time      6.7009: real time      5.9128

 eigenvalue-minimisations  :     0
 total energy-change (2. order) :-0.5561940E+00  (-0.2650031E+00)
 number of electron       8.0000000 magnetization      -0.0000000
 augmentation part        0.6873286 magnetization      -0.0138095

 Free energy of the ion-electron system (eV)
  ---------------------------------------------------
  alpha Z        PSCENC =         0.05559414
  Ewald energy   TEWEN  =       151.81383706
  -Hartree energ DENC   =      -545.55394603
  -exchange      EXHF   =         0.00000000
  -V(xc)+E(xc)   XCENC  =        33.96512405
  PAW double counting   =       552.60448052     -554.68429682
  entropy T*S    EENTRO =        -0.00000000
  eigenvalues    EBANDS =      -109.35392136
  atomic energy  EATOM  =       457.33192828
  ---------------------------------------------------
  free energy    TOTEN  =       -13.82120017 eV

  energy without entropy =      -13.82120017  energy(sigma->0) =      -13.82120017


--------------------------------------------------------------------------------------------------------




--------------------------------------- Iteration      1(   9)  ---------------------------------------


    POTLOK:  cpu time      0.1231: real time      0.1207
    SETDIJ:  cpu time      1.5969: real time      1.4089
    TRIAL :  cpu time      0.0666: real time      0.0473
    CORREC:  cpu time      3.3434: real time      2.9464
    CHARGE:  cpu time      1.6072: real time      1.3797
    --------------------------------------------
      LOOP:  cpu time      6.7379: real time      5.9039

 eigenvalue-minimisations  :     0
 total energy-change (2. order) :-0.2651898E+00  (-0.9305409E-01)
 number of electron       8.0000000 magnetization      -0.0000000
 augmentation part        0.6908088 magnetization      -0.0074279

 Free energy of the ion-electron system (eV)
  ---------------------------------------------------
  alpha Z        PSCENC =         0.05559414
  Ewald energy   TEWEN  =       151.81383706
  -Hartree energ DENC   =      -547.73183739
  -exchange      EXHF   =         0.00000000
  -V(xc)+E(xc)   XCENC  =        34.12921907
  PAW double counting   =       552.96577929     -555.01956759
  entropy T*S    EENTRO =        -0.00000000
  eigenvalues    EBANDS =      -107.63134279
  atomic energy  EATOM  =       457.33192828
  ---------------------------------------------------
  free energy    TOTEN  =       -14.08638994 eV

  energy without entropy =      -14.08638994  energy(sigma->0) =      -14.08638994


--------------------------------------------------------------------------------------------------------




--------------------------------------- Iteration      1(  10)  ---------------------------------------


    POTLOK:  cpu time      0.1217: real time      0.1201
    SETDIJ:  cpu time      1.6045: real time      1.4000
    TRIAL :  cpu time      0.0641: real time      0.0496
    CORREC:  cpu time      3.3847: real time      2.9436
    CHARGE:  cpu time      1.5548: real time      1.3811
    --------------------------------------------
      LOOP:  cpu time      6.7327: real time      5.8973

 eigenvalue-minimisations  :     0
 total energy-change (2. order) :-0.9266438E-01  (-0.2832450E-01)
 number of electron       8.0000000 magnetization      -0.0000000
 augmentation part        0.6915916 magnetization      -0.0028745

 Free energy of the ion-electron system (eV)
  ---------------------------------------------------
  alpha Z        PSCENC =         0.05559414
  Ewald energy   TEWEN  =       151.81383706
  -Hartree energ DENC   =      -546.63737576
  -exchange      EXHF   =         0.00000000
  -V(xc)+E(xc)   XCENC  =        34.07675205
  PAW double counting   =       548.43974803     -550.51946403
  entropy T*S    EENTRO =        -0.00000000
  eigenvalues    EBANDS =      -108.74007408
  atomic energy  EATOM  =       457.33192828
  ---------------------------------------------------
  free energy    TOTEN  =       -14.17905432 eV

  energy without entropy =      -14.17905432  energy(sigma->0) =      -14.17905432


--------------------------------------------------------------------------------------------------------




--------------------------------------- Iteration      1(  11)  ---------------------------------------


    POTLOK:  cpu time      0.1237: real time      0.1213
    SETDIJ:  cpu time      1.5969: real time      1.4091
    TRIAL :  cpu time      0.0762: real time      0.0496
    CORREC:  cpu time      3.3168: real time      2.9283
    CHARGE:  cpu time      1.5706: real time      1.3893
    --------------------------------------------
      LOOP:  cpu time      6.6869: real time      5.9005

 eigenvalue-minimisations  :     0
 total energy-change (2. order) :-0.2823305E-01  (-0.8676731E-02)
 number of electron       8.0000000 magnetization      -0.0000000
 augmentation part        0.6915742 magnetization      -0.0004527

 Free energy of the ion-electron system (eV)
  ---------------------------------------------------
  alpha Z        PSCENC =         0.05559414
  Ewald energy   TEWEN  =       151.81383706
  -Hartree energ DENC   =      -546.42984430
  -exchange      EXHF   =         0.00000000
  -V(xc)+E(xc)   XCENC  =        34.06233467
  PAW double counting   =       546.05059297     -548.13989513
  entropy T*S    EENTRO =        -0.00000000
  eigenvalues    EBANDS =      -108.95183505
  atomic energy  EATOM  =       457.33192828
  ---------------------------------------------------
  free energy    TOTEN  =       -14.20728736 eV

  energy without entropy =      -14.20728736  energy(sigma->0) =      -14.20728736


--------------------------------------------------------------------------------------------------------




--------------------------------------- Iteration      1(  12)  ---------------------------------------


    POTLOK:  cpu time      0.1227: real time      0.1203
    SETDIJ:  cpu time      1.6040: real time      1.3999
    TRIAL :  cpu time      0.0582: real time      0.0476
    CORREC:  cpu time      3.3365: real time      2.9281
    CHARGE:  cpu time      1.5498: real time      1.3771
    --------------------------------------------
      LOOP:  cpu time      6.6742: real time      5.8764

 eigenvalue-minimisations  :     0
 total energy-change (2. order) :-0.8649087E-02  (-0.2467167E-02)
 number of electron       8.0000000 magnetization       0.0000000
 augmentation part        0.6918846 magnetization       0.0004289

 Free energy of the ion-electron system (eV)
  ---------------------------------------------------
  alpha Z        PSCENC =         0.05559414
  Ewald energy   TEWEN  =       151.81383706
  -Hartree energ DENC   =      -545.92180449
  -exchange      EXHF   =         0.00000000
  -V(xc)+E(xc)   XCENC  =        34.03151624
  PAW double counting   =       544.44479318     -546.53985801
  entropy T*S    EENTRO =        -0.00000000
  eigenvalues    EBANDS =      -109.43194285
  atomic energy  EATOM  =       457.33192828
  ---------------------------------------------------
  free energy    TOTEN  =       -14.21593645 eV

  energy without entropy =      -14.21593645  energy(sigma->0) =      -14.21593645


--------------------------------------------------------------------------------------------------------




--------------------------------------- Iteration      1(  13)  ---------------------------------------


    POTLOK:  cpu time      0.1235: real time      0.1215
    SETDIJ:  cpu time      1.6201: real time      1.4024
    TRIAL :  cpu time      0.0606: real time      0.0464
    CORREC:  cpu time      3.3558: real time      2.9509
    CHARGE:  cpu time      1.5612: real time      1.3908
    --------------------------------------------
      LOOP:  cpu time      6.7223: real time      5.9132

 eigenvalue-minimisations  :     0
 total energy-change (2. order) :-0.2465532E-02  (-0.7099384E-03)
 number of electron       8.0000000 magnetization       0.0000000
 augmentation part        0.6914535 magnetization       0.0006009

 Free energy of the ion-electron system (eV)
  ---------------------------------------------------
  alpha Z        PSCENC =         0.05559414
  Ewald energy   TEWEN  =       151.81383706
  -Hartree energ DENC   =      -545.95316535
  -exchange      EXHF   =         0.00000000
  -V(xc)+E(xc)   XCENC  =        34.03160525
  PAW double counting   =       544.51157476     -546.60972212
  entropy T*S    EENTRO =        -0.00000000
  eigenvalues    EBANDS =      -109.40005400
  atomic energy  EATOM  =       457.33192828
  ---------------------------------------------------
  free energy    TOTEN  =       -14.21840198 eV

  energy without entropy =      -14.21840198  energy(sigma->0) =      -14.21840198


--------------------------------------------------------------------------------------------------------




--------------------------------------- Iteration      1(  14)  ---------------------------------------


    POTLOK:  cpu time      0.1242: real time      0.1215
    SETDIJ:  cpu time      1.6457: real time      1.4384
    TRIAL :  cpu time      0.0580: real time      0.0453
    CORREC:  cpu time      3.3750: real time      2.9538
    CHARGE:  cpu time      1.5678: real time      1.3945
    --------------------------------------------
      LOOP:  cpu time      6.7736: real time      5.9564

 eigenvalue-minimisations  :     0
 total energy-change (2. order) :-0.7099135E-03  (-0.2202435E-03)
 number of electron       8.0000000 magnetization       0.0000000
 augmentation part        0.6913737 magnetization       0.0004896

 Free energy of the ion-electron system (eV)
  ---------------------------------------------------
  alpha Z        PSCENC =         0.05559414
  Ewald energy   TEWEN  =       151.81383706
  -Hartree energ DENC   =      -545.83784712
  -exchange      EXHF   =         0.00000000
  -V(xc)+E(xc)   XCENC  =        34.02413129
  PAW double counting   =       544.56280312     -546.65922427
  entropy T*S    EENTRO =        -0.00000000
  eigenvalues    EBANDS =      -109.51033438
  atomic energy  EATOM  =       457.33192828
  ---------------------------------------------------
  free energy    TOTEN  =       -14.21911190 eV

  energy without entropy =      -14.21911190  energy(sigma->0) =      -14.21911190


--------------------------------------------------------------------------------------------------------




--------------------------------------- Iteration      1(  15)  ---------------------------------------


    POTLOK:  cpu time      0.1223: real time      0.1199
    SETDIJ:  cpu time      1.6344: real time      1.4266
    TRIAL :  cpu time      0.0568: real time      0.0464
    CORREC:  cpu time      3.3612: real time      2.9457
    CHARGE:  cpu time      1.6005: real time      1.3861
    --------------------------------------------
      LOOP:  cpu time      6.7802: real time      5.9299

 eigenvalue-minimisations  :     0
 total energy-change (2. order) :-0.2201923E-03  (-0.7673057E-04)
 number of electron       8.0000000 magnetization       0.0000000
 augmentation part        0.6912791 magnetization       0.0002978

 Free energy of the ion-electron system (eV)
  ---------------------------------------------------
  alpha Z        PSCENC =         0.05559414
  Ewald energy   TEWEN  =       151.81383706
  -Hartree energ DENC   =      -545.87476871
  -exchange      EXHF   =         0.00000000
  -V(xc)+E(xc)   XCENC  =        34.02593017
  PAW double counting   =       544.80857867     -546.90404408
  entropy T*S    EENTRO =        -0.00000000
  eigenvalues    EBANDS =      -109.47638762
  atomic energy  EATOM  =       457.33192828
  ---------------------------------------------------
  free energy    TOTEN  =       -14.21933209 eV

  energy without entropy =      -14.21933209  energy(sigma->0) =      -14.21933209


--------------------------------------------------------------------------------------------------------




--------------------------------------- Iteration      1(  16)  ---------------------------------------


    POTLOK:  cpu time      0.1207: real time      0.1200
    SETDIJ:  cpu time      1.6428: real time      1.4084
    TRIAL :  cpu time      0.0620: real time      0.0469
    CORREC:  cpu time      3.3183: real time      2.9260
    EDDIAG:  cpu time      0.0122: real time      0.0122
    CHARGE:  cpu time      1.5843: real time      1.3790
    --------------------------------------------
      LOOP:  cpu time      6.7424: real time      5.8949

 eigenvalue-minimisations  :     0
 total energy-change (2. order) :-0.7668717E-04  (-0.2580698E-04)
 number of electron       8.0000000 magnetization       0.0000000
 augmentation part        0.6913228 magnetization       0.0001408

 Free energy of the ion-electron system (eV)
  ---------------------------------------------------
  alpha Z        PSCENC =         0.05559414
  Ewald energy   TEWEN  =       151.81383706
  -Hartree energ DENC   =      -545.85096003
  -exchange      EXHF   =         0.00000000
  -V(xc)+E(xc)   XCENC  =        34.02461987
  PAW double counting   =       544.86822654     -546.96303370
  entropy T*S    EENTRO =        -0.00000000
  eigenvalues    EBANDS =      -109.49962093
  atomic energy  EATOM  =       457.33192828
  ---------------------------------------------------
  free energy    TOTEN  =       -14.21940878 eV

  energy without entropy =      -14.21940878  energy(sigma->0) =      -14.21940878


--------------------------------------------------------------------------------------------------------


  average scaling for gradient   1.6400


 average (electrostatic) potential at core
  the test charge radii are     0.5201  0.7215
  (the norm of the test charge is              1.0000)
       1 -44.6875       2 -44.6757       3 -80.5390
 
 
 
 E-fermi :  -5.9912     XC(G=0):  -0.1443     alpha+bet : -0.0323

 Fermi energy:        -5.9912252616

 spin component 1

 k-point     1 :       0.0000    0.0000    0.0000
  band No.  band energies     occupation 
      1     -25.2714      1.00000
      2     -13.0655      1.00000
      3      -9.2374      1.00000
      4      -7.1712      1.00000
      5      -0.9912      0.00000
      6       0.0215      0.00000
      7       0.1180      0.00000
      8       0.3371      0.00000
      9       0.4260      0.00000
     10       0.6820      0.00000
     11       0.7870      0.00000
     12       0.9088      0.00000
 Fermi energy:        -5.9912252616

 spin component 2

 k-point     1 :       0.0000    0.0000    0.0000
  band No.  band energies     occupation 
      1     -25.2711      1.00000
      2     -13.0653      1.00000
      3      -9.2371      1.00000
      4      -7.1707      1.00000
      5      -0.9910      0.00000
      6       0.0214      0.00000
      7       0.1182      0.00000
      8       0.3364      0.00000
      9       0.4248      0.00000
     10       0.6805      0.00000
     11       0.7953      0.00000
     12       0.9085      0.00000


--------------------------------------------------------------------------------------------------------


 soft charge-density along one line, spin component            1
         0         1         2         3         4         5         6         7         8         9
 total charge-density along one line
 
 soft charge-density along one line, spin component            2
         0         1         2         3         4         5         6         7         8         9
 total charge-density along one line
 
 pseudopotential strength for first ion, spin component:            1
 -2.384  -4.117   0.000  -0.003  -0.000
 -4.117  -7.022   0.000  -0.009  -0.000
  0.000   0.000  -0.324  -0.000  -0.000
 -0.003  -0.009  -0.000  -0.314  -0.000
 -0.000  -0.000  -0.000  -0.000  -0.324
 pseudopotential strength for first ion, spin component:            2
 -2.384  -4.117   0.000  -0.003  -0.000
 -4.117  -7.022   0.000  -0.009  -0.000
  0.000   0.000  -0.324  -0.000  -0.000
 -0.003  -0.009  -0.000  -0.314  -0.000
 -0.000  -0.000  -0.000  -0.000  -0.324
 total augmentation occupancy for first ion, spin component:            1
  3.802  -0.807  -0.021   0.718  -0.010
 -0.807   0.222   0.004  -0.148   0.007
 -0.021   0.004   0.040  -0.003   0.001
  0.718  -0.148  -0.003   0.136  -0.004
 -0.010   0.007   0.001  -0.004   0.026
 total augmentation occupancy for first ion, spin component:            2
 -0.000  -0.000   0.000  -0.000  -0.000
 -0.000  -0.000  -0.000   0.000   0.000
  0.000  -0.000  -0.000   0.000  -0.000
 -0.000   0.000   0.000  -0.000  -0.000
 -0.000   0.000  -0.000  -0.000   0.000


------------------------ aborting loop because EDIFF is reached ----------------------------------------





 total charge

# of ion       s       p       d       tot
------------------------------------------
    1        0.627   0.120   0.000   0.747
    2        0.626   0.120   0.000   0.746
    3        1.566   3.602   0.000   5.168
--------------------------------------------------
tot          2.818   3.842   0.000   6.661



 magnetization (x)

# of ion       s       p       d       tot
------------------------------------------
    1       -0.000  -0.000   0.000  -0.000
    2       -0.000  -0.000   0.000  -0.000
    3       -0.000   0.000   0.000   0.000
--------------------------------------------------
tot         -0.000   0.000   0.000  -0.000
 
    FORLOC:  cpu time      0.0209: real time      0.0207
    FORNL :  cpu time      9.4384: real time      8.3923
    STRESS:  cpu time     30.3336: real time     26.8370
    FORCOR:  cpu time      0.1072: real time      0.0825
    OFIELD:  cpu time      0.0119: real time      0.0119

 ---------------------------------------------------------------------------------------------

         DFTD3 V3.0 Rev 1        
 IVDW         = 12
 DF pbe       
 parameters
 VDW_S6       =    1.0000
 VDW_S8       =    0.7875
 VDW_A1       =    0.4289
 VDW_A2       =    4.4407
 k1-k3        =   16.0000    1.3333   -4.0000
 VDW_RADIUS   =   50.2022 A
 VDW_CNRADIUS =   21.1671 A
 Edisp (eV)   -0.00982

 E6    (eV) :    -0.0075
 E8    (eV) :    -0.0023
 % E8        : 23.78
    FORVDW:  cpu time      0.0075: real time      0.1396

  FORCE on cell =-STRESS in cart. coord.  units (eV):
  Direction    XX          YY          ZZ          XY          YZ          ZX
  --------------------------------------------------------------------------------------
  Alpha Z     0.05559     0.05559     0.05559
  Ewald     130.29430    45.19040   -23.67087    -7.68483    -5.10407    25.12573
  Hartree   242.98050   227.02296    75.86417    -1.35464    -0.88658     4.26765
  E(xc)     -36.06010   -36.41812   -35.99787    -0.03247    -0.02031     0.09258
  Local    -456.74147  -381.09702  -130.87744     6.71752     4.49501   -22.30545
  n-local   -30.74065   -30.85446   -30.48956    -0.02114    -0.04284     0.38685
  augment     6.42807     8.15332     6.12169     0.15667     0.09853    -0.45183
  Kinetic   143.71893   167.88747   138.94383     2.21831     1.45935    -7.11237
  Fock        0.00000     0.00000     0.00000     0.00000     0.00000     0.00000
  vdW        -0.00009    -0.00010    -0.00002    -0.00000     0.00001    -0.00006
  -------------------------------------------------------------------------------------
  Total      -0.06492    -0.05996    -0.05048    -0.00058    -0.00091     0.00311
  in kB      -0.02578    -0.02381    -0.02005    -0.00023    -0.00036     0.00123
  external pressure =       -0.02 kB  Pullay stress =        0.00 kB


 VOLUME and BASIS-vectors are now :
 -----------------------------------------------------------------------------
  energy-cutoff  :      520.00
  volume of cell :     4033.72
      direct lattice vectors                 reciprocal lattice vectors
    11.103800000  0.000000000  0.000000000     0.090059259  0.000000000  0.000000000
     0.000000000 11.200200000  0.000000000     0.000000000  0.089284120  0.000000000
     0.000000000  0.000000000 32.434600000     0.000000000  0.000000000  0.030831273

  length of vectors
    11.103800000 11.200200000 32.434600000     0.090059259  0.089284120  0.030831273


 FORCES acting on ions:
    Electron-Ion                     Ewald-Force                    Non-Local-Force
 -----------------------------------------------------------------------------------------------
   0.738E+00 -.269E+01 0.883E+02   -.773E+00 0.294E+01 -.967E+02   0.338E-01 -.252E+00 0.832E+01
   -.829E+02 0.764E+01 -.277E+02   0.908E+02 -.837E+01 0.303E+02   -.788E+01 0.725E+00 -.257E+01
   0.505E+02 -.304E+01 -.374E+02   -.900E+02 0.542E+01 0.663E+02   0.395E+02 -.238E+01 -.290E+02
 -----------------------------------------------------------------------------------------------
   -.317E+02 0.191E+01 0.232E+02   0.000E+00 0.000E+00 0.000E+00   0.317E+02 -.191E+01 -.232E+02
 
 
 POSITION                                       TOTAL-FORCE (eV/Angst)
 -----------------------------------------------------------------------------------
      5.35641      7.09580     16.18830        -0.002053      0.000704     -0.008138
      6.25735      6.98456     17.42778         0.001663     -0.000311      0.009790
      5.32698      7.06909     17.15931         0.000391     -0.000393     -0.001652
 -----------------------------------------------------------------------------------
    total drift:                                0.002993     -0.000199     -0.003311


--------------------------------------------------------------------------------------------------------



  FREE ENERGIE OF THE ION-ELECTRON SYSTEM (eV)
  ---------------------------------------------------
  free  energy   TOTEN  =       -14.22922402 eV

  energy  without entropy=      -14.22922402  energy(sigma->0) =      -14.22922402
 


--------------------------------------------------------------------------------------------------------


    POTLOK:  cpu time      1.7429: real time      1.5626


--------------------------------------------------------------------------------------------------------




--------------------------------------------------------------------------------------------------------


  
 reached required accuracy - stopping structural energy minimisation
 writing wavefunctions
     LOOP+:  cpu time    134.3215: real time    120.2396
    4ORBIT:  cpu time      0.0000: real time      0.0000



 total charge

# of ion       s       p       d       tot
------------------------------------------
    1        0.627   0.120   0.000   0.747
    2        0.626   0.120   0.000   0.746
    3        1.566   3.602   0.000   5.168
--------------------------------------------------
tot          2.818   3.842   0.000   6.661



 magnetization (x)

# of ion       s       p       d       tot
------------------------------------------
    1       -0.000  -0.000   0.000  -0.000
    2       -0.000  -0.000   0.000  -0.000
    3       -0.000   0.000   0.000   0.000
--------------------------------------------------
tot         -0.000   0.000   0.000  -0.000
 

 total amount of memory used by VASP MPI-rank0  1026493. kBytes
=======================================================================

   base      :      30000. kBytes
   nonl-proj :      19110. kBytes
   fftplans  :     521602. kBytes
   grid      :     424488. kBytes
   one-center:         18. kBytes
   wavefun   :      31275. kBytes
 
  
  
 General timing and accounting informations for this job:
 ========================================================
  
                  Total CPU time used (sec):      179.222
                            User time (sec):      161.143
                          System time (sec):       18.079
                         Elapsed time (sec):      161.082
  
                   Maximum memory used (kb):     3294056.
                   Average memory used (kb):          N/A
  
                          Minor page faults:       536735
                          Major page faults:          149
                 Voluntary context switches:        52930
