<?xml version="1.0" encoding="ISO-8859-1"?>
<modeling>
 <generator>
  <i name="program" type="string">vasp </i>
  <i name="version" type="string">6.3.2  </i>
  <i name="subversion" type="string">27Jun22 (build Sep  5 2022 18:50:32) complex                          parallel </i>
  <i name="platform" type="string">LinuxNV </i>
  <i name="date" type="string">2023 01 26 </i>
  <i name="time" type="string">05:33:09 </i>
 </generator>
 <incar>
  <i type="string" name="PREC">Accurate   (Precision level: Normal or Accurate, set Accurate when perform structure lattice relaxation calculation)</i>
  <i type="string" name="ALGO">All</i>
  <i type="logical" name="ADDGRID"> T  </i>
  <i type="int" name="ISPIN">     2</i>
  <i type="int" name="NELM">   150</i>
  <i type="int" name="NELMIN">     6</i>
  <i type="int" name="IBRION">     2</i>
  <i name="EDIFF">      0.00010000</i>
  <i name="EDIFFG">     -0.01000000</i>
  <i type="int" name="NSW">   100</i>
  <i type="int" name="ISIF">     2</i>
  <i name="ENCUT">    520.00000000</i>
  <i type="logical" name="LREAL"> F  </i>
  <i type="int" name="ISMEAR">    -1</i>
  <i name="SIGMA">      0.05000000</i>
  <i type="logical" name="LWAVE"> T  </i>
  <i type="logical" name="LCHARG"> T  </i>
  <i type="int" name="LORBIT">    11</i>
  <i type="int" name="IVDW">    12</i>
 </incar>
 <primitive_cell>
  <structure name="primitive_cell" >
   <crystal>
    <varray name="basis" >
     <v>      11.10380000       0.00000000       0.00000000 </v>
     <v>       0.00000000      11.20020000       0.00000000 </v>
     <v>       0.00000000       0.00000000      32.43460000 </v>
    </varray>
    <i name="volume">   4033.72191804 </i>
    <varray name="rec_basis" >
     <v>       0.09005926       0.00000000       0.00000000 </v>
     <v>       0.00000000       0.08928412       0.00000000 </v>
     <v>       0.00000000       0.00000000       0.03083127 </v>
    </varray>
   </crystal>
   <varray name="positions" >
    <v>       0.48239407       0.63354183       0.49910589 </v>
    <v>       0.56353235       0.62361045       0.53732066 </v>
    <v>       0.47974358       0.63115772       0.52904345 </v>
   </varray>
  </structure>
  <varray name="primitive_index" >
   <v type="int" >        1 </v>
   <v type="int" >        2 </v>
   <v type="int" >        3 </v>
  </varray>
 </primitive_cell>
 <kpoints>
  <generation param="Monkhorst-Pack">
   <v type="int" name="divisions">       1        1        1 </v>
   <v name="usershift">      0.00000000       0.00000000       0.00000000 </v>
   <v name="genvec1">      1.00000000       0.00000000       0.00000000 </v>
   <v name="genvec2">      0.00000000       1.00000000       0.00000000 </v>
   <v name="genvec3">      0.00000000       0.00000000       1.00000000 </v>
   <v name="shift">      0.00000000       0.00000000       0.00000000 </v>
  </generation>
  <varray name="kpointlist" >
   <v>       0.00000000       0.00000000       0.00000000 </v>
  </varray>
  <varray name="weights" >
   <v>       1.00000000 </v>
  </varray>
 </kpoints>
 <parameters>
  <separator name="general" >
   <i type="string" name="SYSTEM">unknown system</i>
   <i type="logical" name="LCOMPAT"> F  </i>
  </separator>
  <separator name="electronic" >
   <i type="string" name="PREC">accura</i>
   <i name="ENMAX">    520.00000000</i>
   <i name="ENAUG">    605.39200000</i>
   <i name="EDIFF">      0.00010000</i>
   <i type="int" name="IALGO">    58</i>
   <i type="int" name="IWAVPR">    11</i>
   <i type="int" name="NBANDS">    12</i>
   <i type="int" name="NBANDSLOW">    -1</i>
   <i type="int" name="NBANDSHIGH">    -1</i>
   <i name="NELECT">      8.00000000</i>
   <i type="int" name="TURBO">     0</i>
   <i type="int" name="IRESTART">     0</i>
   <i type="int" name="NREBOOT">     0</i>
   <i type="int" name="NMIN">     0</i>
   <i name="EREF">      0.00000000</i>
   <separator name="electronic smearing" >
    <i type="int" name="ISMEAR">    -1</i>
    <i name="SIGMA">      0.05000000</i>
    <i name="KSPACING">      0.50000000</i>
    <i type="logical" name="KGAMMA"> T  </i>
    <i type="logical" name="KBLOWUP"> T  </i>
   </separator>
   <separator name="electronic projectors" >
    <i type="logical" name="LREAL"> F  </i>
    <v name="ROPT">      0.00000000      0.00000000</v>
    <i type="int" name="LMAXPAW">  -100</i>
    <i type="int" name="LMAXMIX">     2</i>
    <i type="logical" name="NLSPLINE"> F  </i>
   </separator>
   <separator name="electronic startup" >
    <i type="int" name="ISTART">     0</i>
    <i type="int" name="ICHARG">     2</i>
    <i type="int" name="INIWAV">     1</i>
   </separator>
   <separator name="electronic spin" >
    <i type="int" name="ISPIN">     2</i>
    <i type="logical" name="LNONCOLLINEAR"> F  </i>
    <v name="MAGMOM">      1.00000000      1.00000000      1.00000000</v>
    <i name="NUPDOWN">     -1.00000000</i>
    <i type="logical" name="LSORBIT"> F  </i>
    <v name="SAXIS">      0.00000000      0.00000000      1.00000000</v>
    <i type="logical" name="LSPIRAL"> F  </i>
    <v name="QSPIRAL">      0.00000000      0.00000000      0.00000000</v>
    <i type="logical" name="LZEROZ"> F  </i>
   </separator>
   <separator name="electronic exchange-correlation" >
    <i type="logical" name="LASPH"> F  </i>
    <i type="logical" name="LMETAGGA"> F  </i>
   </separator>
   <separator name="electronic convergence" >
    <i type="int" name="NELM">   150</i>
    <i type="int" name="NELMDL">    -5</i>
    <i type="int" name="NELMIN">     6</i>
    <i name="ENINI">    520.00000000</i>
    <separator name="electronic convergence detail" >
     <i type="logical" name="LDIAG"> T  </i>
     <i type="logical" name="LSUBROT"> F  </i>
     <i name="WEIMIN">      0.00100000</i>
     <i name="EBREAK">      0.00000208</i>
     <i name="DEPER">      0.30000000</i>
     <i type="int" name="NRMM">     4</i>
     <i name="TIME">      0.40000000</i>
    </separator>
   </separator>
   <separator name="electronic mixer" >
    <i name="AMIX">      0.40000000</i>
    <i name="BMIX">      1.00000000</i>
    <i name="AMIN">      0.10000000</i>
    <i name="AMIX_MAG">      1.60000000</i>
    <i name="BMIX_MAG">      1.00000000</i>
    <separator name="electronic mixer details" >
     <i type="int" name="IMIX">     4</i>
     <i type="logical" name="MIXFIRST"> F  </i>
     <i type="int" name="MAXMIX">   -45</i>
     <i name="WC">    100.00000000</i>
     <i type="int" name="INIMIX">     1</i>
     <i type="int" name="MIXPRE">     1</i>
     <i type="int" name="MREMOVE">     5</i>
    </separator>
   </separator>
   <separator name="electronic dipolcorrection" >
    <i type="logical" name="LDIPOL"> F  </i>
    <i type="logical" name="LMONO"> F  </i>
    <i type="int" name="IDIPOL">     0</i>
    <i name="EPSILON">      1.00000000</i>
    <v name="DIPOL">   -100.00000000   -100.00000000   -100.00000000</v>
    <i name="EFIELD">      0.00000000</i>
   </separator>
  </separator>
  <separator name="grids" >
   <i type="int" name="NGX">    84</i>
   <i type="int" name="NGY">    84</i>
   <i type="int" name="NGZ">   250</i>
   <i type="int" name="NGXF">   168</i>
   <i type="int" name="NGYF">   168</i>
   <i type="int" name="NGZF">   500</i>
   <i type="logical" name="ADDGRID"> T  </i>
  </separator>
  <separator name="ionic" >
   <i type="int" name="NSW">   100</i>
   <i type="int" name="IBRION">     2</i>
   <i type="int" name="MDALGO">     0</i>
   <i type="int" name="ISIF">     2</i>
   <i name="PSTRESS">      0.00000000</i>
   <i name="EDIFFG">     -0.01000000</i>
   <i type="int" name="NFREE">     1</i>
   <i name="POTIM">      0.50000000</i>
   <i name="SMASS">     -3.00000000</i>
   <i name="SCALEE">      1.00000000</i>
  </separator>
  <separator name="ionic md" >
   <i name="TEBEG">      0.00010000</i>
   <i name="TEEND">      0.00010000</i>
   <i type="int" name="NBLOCK">     1</i>
   <i type="int" name="KBLOCK">   100</i>
   <i type="int" name="NPACO">   256</i>
   <i name="APACO">     10.00000000</i>
  </separator>
  <separator name="symmetry" >
   <i type="int" name="ISYM">     2</i>
   <i name="SYMPREC">      0.00001000</i>
  </separator>
  <separator name="dos" >
   <i type="int" name="LORBIT">    11</i>
   <v name="RWIGS">     -1.00000000     -1.00000000</v>
   <i type="int" name="NEDOS">   301</i>
   <i name="EMIN">     10.00000000</i>
   <i name="EMAX">    -10.00000000</i>
   <i name="EFERMI">      0.00000000</i>
  </separator>
  <separator name="writing" >
   <i type="int" name="NWRITE">     2</i>
   <i type="logical" name="LWAVE"> T  </i>
   <i type="logical" name="LDOWNSAMPLE"> F  </i>
   <i type="logical" name="LCHARG"> T  </i>
   <i type="logical" name="LPARD"> F  </i>
   <i type="logical" name="LVTOT"> F  </i>
   <i type="logical" name="LVHAR"> F  </i>
   <i type="logical" name="LELF"> F  </i>
   <i type="logical" name="LOPTICS"> F  </i>
   <v name="STM">      0.00000000      0.00000000      0.00000000      0.00000000      0.00000000      0.00000000      0.00000000</v>
  </separator>
  <separator name="performance" >
   <i type="int" name="NPAR">     4</i>
   <i type="int" name="NSIM">     4</i>
   <i type="int" name="NBLK">    -1</i>
   <i type="logical" name="LPLANE"> T  </i>
   <i type="logical" name="LSCALAPACK"> F  </i>
   <i type="logical" name="LSCAAWARE"> F  </i>
   <i type="logical" name="LSCALU"> F  </i>
   <i type="logical" name="LASYNC"> F  </i>
   <i type="logical" name="LORBITALREAL"> F  </i>
  </separator>
  <separator name="miscellaneous" >
   <i type="int" name="IDIOT">     3</i>
   <i type="int" name="PHON_NSTRUCT">    -1</i>
   <i type="logical" name="LMUSIC"> F  </i>
   <v name="POMASS">      1.00000000     16.00000000</v>
   <v name="DARWINR">      0.00000000      0.00000000</v>
   <v name="DARWINV">      1.00000000      1.00000000</v>
   <i type="logical" name="LCORR"> T  </i>
  </separator>
  <i type="logical" name="GGA_COMPAT"> T  </i>
  <i type="logical" name="LBERRY"> F  </i>
  <i type="int" name="ICORELEVEL">     0</i>
  <i type="logical" name="LDAU"> F  </i>
  <i type="int" name="I_CONSTRAINED_M">     0</i>
  <separator name="electronic exchange-correlation" >
   <i type="string" name="GGA">--</i>
   <i type="int" name="VOSKOWN">     0</i>
   <i type="logical" name="LHFCALC"> F  </i>
   <i type="string" name="PRECFOCK"></i>
   <i type="logical" name="LSYMGRAD"> F  </i>
   <i type="logical" name="LHFONE"> F  </i>
   <i type="logical" name="LRHFCALC"> F  </i>
   <i type="logical" name="LTHOMAS"> F  </i>
   <i type="logical" name="LMODELHF"> F  </i>
   <i type="logical" name="LFOCKACE"> F  </i>
   <i name="ENCUT4O">     -1.00000000</i>
   <i type="int" name="EXXOEP">     0</i>
   <i type="int" name="FOURORBIT">     0</i>
   <i name="AEXX">      0.00000000</i>
   <i name="HFALPHA">      0.00000000</i>
   <i name="MCALPHA">      0.00000000</i>
   <i name="ALDAX">      1.00000000</i>
   <i name="AGGAX">      1.00000000</i>
   <i name="ALDAC">      1.00000000</i>
   <i name="AGGAC">      1.00000000</i>
   <i type="int" name="NKREDX">     1</i>
   <i type="int" name="NKREDY">     1</i>
   <i type="int" name="NKREDZ">     1</i>
   <i type="logical" name="SHIFTRED"> F  </i>
   <i type="logical" name="ODDONLY"> F  </i>
   <i type="logical" name="EVENONLY"> F  </i>
   <i type="int" name="LMAXFOCK">     0</i>
   <i type="int" name="NMAXFOCKAE">     0</i>
   <i type="logical" name="LFOCKAEDFT"> F  </i>
   <i name="HFSCREEN">      0.00000000</i>
   <i name="HFSCREENC">      0.00000000</i>
   <i type="int" name="NBANDSGWLOW">     0</i>
  </separator>
  <separator name="vdW DFT" >
   <i type="logical" name="LUSE_VDW"> F  </i>
   <i name="Zab_VDW">     -0.84910000</i>
   <i name="PARAM1">      0.12340000</i>
   <i name="PARAM2">      1.00000000</i>
   <i name="PARAM3">      0.00000000</i>
  </separator>
  <separator name="model GW" >
   <i type="int" name="MODEL_GW">     0</i>
   <i name="MODEL_EPS0">    806.74438361</i>
   <i name="MODEL_ALPHA">      1.00000000</i>
  </separator>
  <separator name="linear response parameters" >
   <i type="logical" name="LEPSILON"> F  </i>
   <i type="logical" name="LRPA"> F  </i>
   <i type="logical" name="LNABLA"> F  </i>
   <i type="logical" name="LVEL"> F  </i>
   <i name="CSHIFT">      0.10000000</i>
   <i name="OMEGAMAX">     -1.00000000</i>
   <i name="DEG_THRESHOLD">      0.00200000</i>
   <i name="RTIME">     -0.10000000</i>
   <i name="WPLASMAI">      0.00000000</i>
   <v name="DFIELD">      0.00000000      0.00000000      0.00000000</v>
   <v name="WPLASMA">      0.00000000      0.00000000      0.00000000      0.00000000      0.00000000      0.00000000      0.00000000      0.00000000      0.00000000</v>
  </separator>
  <separator name="orbital magnetization" >
   <i type="logical" name="NUCIND"> F  </i>
   <v name="MAGPOS">      0.00000000      0.00000000      0.00000000</v>
   <i type="logical" name="LNICSALL"> T  </i>
   <i type="logical" name="ORBITALMAG"> F  </i>
   <i type="logical" name="LMAGBLOCH"> F  </i>
   <i type="logical" name="LCHIMAG"> F  </i>
   <i type="logical" name="LGAUGE"> T  </i>
   <i type="int" name="MAGATOM">     0</i>
   <v name="MAGDIPOL">      0.00000000      0.00000000      0.00000000</v>
   <v name="AVECCONST">      0.00000000      0.00000000      0.00000000</v>
  </separator>
  <separator name="response functions" >
   <i type="logical" name="LFINITE_TEMPERATURE"> F  </i>
   <i type="logical" name="LADDER"> F  </i>
   <i type="logical" name="LRPAFORCE"> F  </i>
   <i type="logical" name="LFXC"> F  </i>
   <i type="logical" name="LHARTREE"> T  </i>
   <i type="int" name="IBSE">     0</i>
   <v type="int" name="KPOINT">    -1     0     0     0</v>
   <i type="logical" name="LTCTC"> F  </i>
   <i type="logical" name="LTCTE"> F  </i>
   <i type="logical" name="LTETE"> F  </i>
   <i type="logical" name="LTRIPLET"> F  </i>
   <i type="logical" name="LFXCEPS"> F  </i>
   <i type="logical" name="LFXHEG"> F  </i>
   <i type="int" name="NATURALO">     2</i>
   <i type="logical" name="LHOLEGF"> F  </i>
   <i type="logical" name="L2ORDER"> F  </i>
   <i type="logical" name="LDMP1"> F  </i>
   <i type="logical" name="LMP2LT"> F  </i>
   <i type="logical" name="LSMP2LT"> F  </i>
   <i type="logical" name="LGWLF"> F  </i>
   <i name="ENCUTGW">     -2.00000000</i>
   <i name="ENCUTGWSOFT">     -2.00000000</i>
   <i name="ENCUTLF">     -1.00000000</i>
   <i type="logical" name="LESF_SPLINES"> F  </i>
   <i type="int" name="LMAXMP2">    -1</i>
   <i name="SCISSOR">      0.00000000</i>
   <i type="int" name="NOMEGA">     0</i>
   <i type="int" name="NOMEGAR">     0</i>
   <i type="int" name="NBANDSGW">    -1</i>
   <i type="int" name="NBANDSO">    -1</i>
   <i type="int" name="NBANDSV">    -1</i>
   <i type="int" name="NELMGW">     1</i>
   <i type="int" name="NELMHF">     1</i>
   <i type="int" name="DIM">     3</i>
   <i type="int" name="IESPILON">     4</i>
   <i type="int" name="ANTIRES">     0</i>
   <i name="OMEGAMAX">    -30.00000000</i>
   <i name="OMEGAMIN">    -30.00000000</i>
   <i name="OMEGATL">   -200.00000000</i>
   <i type="int" name="OMEGAGRID">     0</i>
   <i name="CSHIFT">     -0.10000000</i>
   <i type="logical" name="LSELFENERGY"> F  </i>
   <i type="logical" name="LSPECTRAL"> F  </i>
   <i type="logical" name="LSPECTRALGW"> F  </i>
   <i type="logical" name="LSINGLES"> F  </i>
   <i type="logical" name="LFERMIGW"> F  </i>
   <i type="logical" name="ODDONLYGW"> F  </i>
   <i type="logical" name="EVENONLYGW"> F  </i>
   <i type="int" name="NKREDLFX">     1</i>
   <i type="int" name="NKREDLFY">     1</i>
   <i type="int" name="NKREDLFZ">     1</i>
   <i type="int" name="MAXMEM">  2800</i>
   <i type="int" name="TELESCOPE">     0</i>
   <i type="int" name="NTAUPAR">    -1</i>
   <i type="int" name="NOMEGAPAR">    -1</i>
   <i name="DAMP_NEWTON">      0.80000001</i>
   <i name="LAMBDA">      1.00000000</i>
  </separator>
  <separator name="External order field" >
   <i name="OFIELD_KAPPA">      0.00000000</i>
   <v name="OFIELD_K">      0.00000000      0.00000000      0.00000000</v>
   <i name="OFIELD_Q6_NEAR">      0.00000000</i>
   <i name="OFIELD_Q6_FAR">      0.00000000</i>
   <i name="OFIELD_A">      0.00000000</i>
  </separator>
  <separator name="optional k-points parameters" >
   <i type="int" name="KPOINTS_OPT_MODE">     1</i>
   <i type="logical" name="LKPOINTS_OPT"> F  </i>
  </separator>
 </parameters>
 <atominfo>
  <atoms>       3 </atoms>
  <types>       2 </types>
  <array name="atoms" >
   <dimension dim="1">ion</dimension>
   <field type="string">element</field>
   <field type="int">atomtype</field>
   <set>
    <rc><c>H </c><c>   1</c></rc>
    <rc><c>H </c><c>   1</c></rc>
    <rc><c>O </c><c>   2</c></rc>
   </set>
  </array>
  <array name="atomtypes" >
   <dimension dim="1">type</dimension>
   <field type="int">atomspertype</field>
   <field type="string">element</field>
   <field>mass</field>
   <field>valence</field>
   <field type="string">pseudopotential</field>
   <set>
    <rc><c>   2</c><c>H </c><c>      1.00000000</c><c>      1.00000000</c><c>  PAW_PBE H 15Jun2001                   </c></rc>
    <rc><c>   1</c><c>O </c><c>     16.00000000</c><c>      6.00000000</c><c>  PAW_PBE O 08Apr2002                   </c></rc>
   </set>
  </array>
 </atominfo>
 <structure name="initialpos" >
  <crystal>
   <varray name="basis" >
    <v>      11.10380000       0.00000000       0.00000000 </v>
    <v>       0.00000000      11.20020000       0.00000000 </v>
    <v>       0.00000000       0.00000000      32.43460000 </v>
   </varray>
   <i name="volume">   4033.72191804 </i>
   <varray name="rec_basis" >
    <v>       0.09005926       0.00000000       0.00000000 </v>
    <v>       0.00000000       0.08928412       0.00000000 </v>
    <v>       0.00000000       0.00000000       0.03083127 </v>
   </varray>
  </crystal>
  <varray name="positions" >
   <v>       0.48239407       0.63354183       0.49910589 </v>
   <v>       0.56353235       0.62361045       0.53732066 </v>
   <v>       0.47974358       0.63115772       0.52904345 </v>
  </varray>
 </structure>
 <calculation>
  <scstep>
   <time name="total">    2.15    2.08</time>
   <energy>
    <i name="alphaZ">      0.05559414 </i>
    <i name="ewald">    151.81383706 </i>
    <i name="hartreedc">   -510.84008200 </i>
    <i name="XCdc">     32.99242475 </i>
    <i name="pawpsdc">    349.99468356 </i>
    <i name="pawaedc">   -351.80531939 </i>
    <i name="eentropy">     -0.09631922 </i>
    <i name="bandstr">    -55.64756895 </i>
    <i name="atom">    457.33192828 </i>
    <i name="e_fr_energy">     73.79917823 </i>
    <i name="e_wo_entrp">     73.89549745 </i>
    <i name="e_0_energy">     73.84733784 </i>
   </energy>
  </scstep>
  <scstep>
   <time name="total">    0.07    0.07</time>
   <energy>
    <i name="e_fr_energy">      6.44063384 </i>
    <i name="e_wo_entrp">      6.44063384 </i>
    <i name="e_0_energy">      6.44063384 </i>
   </energy>
  </scstep>
  <scstep>
   <time name="total">    0.06    0.06</time>
   <energy>
    <i name="e_fr_energy">    -12.19988340 </i>
    <i name="e_wo_entrp">    -12.19988340 </i>
    <i name="e_0_energy">    -12.19988340 </i>
   </energy>
  </scstep>
  <scstep>
   <time name="total">    0.05    0.05</time>
   <energy>
    <i name="e_fr_energy">    -12.91537739 </i>
    <i name="e_wo_entrp">    -12.91537739 </i>
    <i name="e_0_energy">    -12.91537739 </i>
   </energy>
  </scstep>
  <scstep>
   <time name="total">    1.63    1.54</time>
   <energy>
    <i name="e_fr_energy">    -12.92130330 </i>
    <i name="e_wo_entrp">    -12.92130330 </i>
    <i name="e_0_energy">    -12.92130330 </i>
   </energy>
  </scstep>
  <scstep>
   <time name="total">    6.85    5.98</time>
   <energy>
    <i name="e_fr_energy">     -9.54546622 </i>
    <i name="e_wo_entrp">     -9.54546622 </i>
    <i name="e_0_energy">     -9.54546622 </i>
   </energy>
  </scstep>
  <scstep>
   <time name="total">    6.77    5.96</time>
   <energy>
    <i name="e_fr_energy">    -13.26500620 </i>
    <i name="e_wo_entrp">    -13.26500620 </i>
    <i name="e_0_energy">    -13.26500620 </i>
   </energy>
  </scstep>
  <scstep>
   <time name="total">    6.70    5.91</time>
   <energy>
    <i name="e_fr_energy">    -13.82120017 </i>
    <i name="e_wo_entrp">    -13.82120017 </i>
    <i name="e_0_energy">    -13.82120017 </i>
   </energy>
  </scstep>
  <scstep>
   <time name="total">    6.74    5.90</time>
   <energy>
    <i name="e_fr_energy">    -14.08638994 </i>
    <i name="e_wo_entrp">    -14.08638994 </i>
    <i name="e_0_energy">    -14.08638994 </i>
   </energy>
  </scstep>
  <scstep>
   <time name="total">    6.73    5.90</time>
   <energy>
    <i name="e_fr_energy">    -14.17905432 </i>
    <i name="e_wo_entrp">    -14.17905432 </i>
    <i name="e_0_energy">    -14.17905432 </i>
   </energy>
  </scstep>
  <scstep>
   <time name="total">    6.69    5.90</time>
   <energy>
    <i name="e_fr_energy">    -14.20728736 </i>
    <i name="e_wo_entrp">    -14.20728736 </i>
    <i name="e_0_energy">    -14.20728736 </i>
   </energy>
  </scstep>
  <scstep>
   <time name="total">    6.67    5.88</time>
   <energy>
    <i name="e_fr_energy">    -14.21593645 </i>
    <i name="e_wo_entrp">    -14.21593645 </i>
    <i name="e_0_energy">    -14.21593645 </i>
   </energy>
  </scstep>
  <scstep>
   <time name="total">    6.72    5.91</time>
   <energy>
    <i name="e_fr_energy">    -14.21840198 </i>
    <i name="e_wo_entrp">    -14.21840198 </i>
    <i name="e_0_energy">    -14.21840198 </i>
   </energy>
  </scstep>
  <scstep>
   <time name="total">    6.77    5.96</time>
   <energy>
    <i name="e_fr_energy">    -14.21911190 </i>
    <i name="e_wo_entrp">    -14.21911190 </i>
    <i name="e_0_energy">    -14.21911190 </i>
   </energy>
  </scstep>
  <scstep>
   <time name="total">    6.78    5.93</time>
   <energy>
    <i name="e_fr_energy">    -14.21933209 </i>
    <i name="e_wo_entrp">    -14.21933209 </i>
    <i name="e_0_energy">    -14.21933209 </i>
   </energy>
  </scstep>
  <scstep>
   <time name="total">    6.74    5.89</time>
   <energy>
    <i name="alphaZ">      0.05559414 </i>
    <i name="ewald">    151.81383706 </i>
    <i name="hartreedc">   -545.85096003 </i>
    <i name="XCdc">     34.02461987 </i>
    <i name="pawpsdc">    544.86822654 </i>
    <i name="pawaedc">   -546.96303370 </i>
    <i name="eentropy">     -0.00000000 </i>
    <i name="bandstr">   -109.49962093 </i>
    <i name="atom">    457.33192828 </i>
    <i name="e_fr_energy">    -14.21940878 </i>
    <i name="e_wo_entrp">    -14.21940878 </i>
    <i name="e_0_energy">    -14.21940878 </i>
   </energy>
  </scstep>
  <structure>
   <crystal>
    <varray name="basis" >
     <v>      11.10380000       0.00000000       0.00000000 </v>
     <v>       0.00000000      11.20020000       0.00000000 </v>
     <v>       0.00000000       0.00000000      32.43460000 </v>
    </varray>
    <i name="volume">   4033.72191804 </i>
    <varray name="rec_basis" >
     <v>       0.09005926       0.00000000       0.00000000 </v>
     <v>       0.00000000       0.08928412       0.00000000 </v>
     <v>       0.00000000       0.00000000       0.03083127 </v>
    </varray>
   </crystal>
   <varray name="positions" >
    <v>       0.48239407       0.63354183       0.49910589 </v>
    <v>       0.56353235       0.62361045       0.53732066 </v>
    <v>       0.47974358       0.63115772       0.52904345 </v>
   </varray>
  </structure>
  <varray name="forces" >
   <v>      -0.00205323       0.00070406      -0.00813826 </v>
   <v>       0.00166251      -0.00031090       0.00979024 </v>
   <v>       0.00039072      -0.00039316      -0.00165198 </v>
  </varray>
  <varray name="stress" >
   <v>      -0.02578416      -0.00023210       0.00123396 </v>
   <v>      -0.00023210      -0.02381466      -0.00035974 </v>
   <v>       0.00123396      -0.00035974      -0.02005189 </v>
  </varray>
  <energy>
   <i name="e_fr_energy">    -14.22922402 </i>
   <i name="e_wo_entrp">    -14.22922402 </i>
   <i name="e_0_energy">    -14.22922402 </i>
  </energy>
  <time name="totalsc">  134.32  120.24</time>
  <eigenvalues>
   <array>
    <dimension dim="1">band</dimension>
    <dimension dim="2">kpoint</dimension>
    <dimension dim="3">spin</dimension>
    <field>eigene</field>
    <field>occ</field>
    <set>
     <set comment="spin 1">
      <set comment="kpoint 1">
       <r>  -25.2714    1.0000 </r>
       <r>  -13.0655    1.0000 </r>
       <r>   -9.2374    1.0000 </r>
       <r>   -7.1712    1.0000 </r>
       <r>   -0.9912    0.0000 </r>
       <r>    0.0215    0.0000 </r>
       <r>    0.1180    0.0000 </r>
       <r>    0.3371    0.0000 </r>
       <r>    0.4260    0.0000 </r>
       <r>    0.6820    0.0000 </r>
       <r>    0.7870    0.0000 </r>
       <r>    0.9088    0.0000 </r>
      </set>
     </set>
     <set comment="spin 2">
      <set comment="kpoint 1">
       <r>  -25.2711    1.0000 </r>
       <r>  -13.0653    1.0000 </r>
       <r>   -9.2371    1.0000 </r>
       <r>   -7.1707    1.0000 </r>
       <r>   -0.9910    0.0000 </r>
       <r>    0.0214    0.0000 </r>
       <r>    0.1182    0.0000 </r>
       <r>    0.3364    0.0000 </r>
       <r>    0.4248    0.0000 </r>
       <r>    0.6805    0.0000 </r>
       <r>    0.7953    0.0000 </r>
       <r>    0.9085    0.0000 </r>
      </set>
     </set>
    </set>
   </array>
  </eigenvalues>
  <separator name="orbital magnetization" >
   <v name="MAGDIPOLOUT">      0.00000000      0.00000000      0.00000000</v>
  </separator>
  <dos>
   <i name="efermi">     -5.94168325 </i>
   <total>
    <array>
     <dimension dim="1">gridpoints</dimension>
     <dimension dim="2">spin</dimension>
     <field>energy</field>
     <field>total</field>
     <field>integrated</field>
     <set>
      <set comment="spin 1">
       <r>   -26.5805     0.0000     0.0000 </r>
       <r>   -26.4845     0.0000     0.0000 </r>
       <r>   -26.3885     0.0000     0.0000 </r>
       <r>   -26.2925     0.0000     0.0000 </r>
       <r>   -26.1965     0.0000     0.0000 </r>
       <r>   -26.1005     0.0000     0.0000 </r>
       <r>   -26.0045     0.0000     0.0000 </r>
       <r>   -25.9085     0.0000     0.0000 </r>
       <r>   -25.8125     0.0000     0.0000 </r>
       <r>   -25.7165     0.0014     0.0001 </r>
       <r>   -25.6205     0.0082     0.0009 </r>
       <r>   -25.5245     0.0559     0.0063 </r>
       <r>   -25.4285     0.3659     0.0414 </r>
       <r>   -25.3325     1.9398     0.2276 </r>
       <r>   -25.2365     4.5851     0.6678 </r>
       <r>   -25.1405     2.7526     0.9320 </r>
       <r>   -25.0445     0.5980     0.9894 </r>
       <r>   -24.9486     0.0939     0.9984 </r>
       <r>   -24.8526     0.0000     1.0000 </r>
       <r>   -24.7566     0.0000     1.0000 </r>
       <r>   -24.6606     0.0000     1.0000 </r>
       <r>   -24.5646     0.0000     1.0000 </r>
       <r>   -24.4686     0.0000     1.0000 </r>
       <r>   -24.3726     0.0000     1.0000 </r>
       <r>   -24.2766     0.0000     1.0000 </r>
       <r>   -24.1806     0.0000     1.0000 </r>
       <r>   -24.0846     0.0000     1.0000 </r>
       <r>   -23.9886     0.0000     1.0000 </r>
       <r>   -23.8926     0.0000     1.0000 </r>
       <r>   -23.7966     0.0000     1.0000 </r>
       <r>   -23.7006     0.0000     1.0000 </r>
       <r>   -23.6046     0.0000     1.0000 </r>
       <r>   -23.5086     0.0000     1.0000 </r>
       <r>   -23.4126     0.0000     1.0000 </r>
       <r>   -23.3167     0.0000     1.0000 </r>
       <r>   -23.2207     0.0000     1.0000 </r>
       <r>   -23.1247     0.0000     1.0000 </r>
       <r>   -23.0287     0.0000     1.0000 </r>
       <r>   -22.9327     0.0000     1.0000 </r>
       <r>   -22.8367     0.0000     1.0000 </r>
       <r>   -22.7407     0.0000     1.0000 </r>
       <r>   -22.6447     0.0000     1.0000 </r>
       <r>   -22.5487     0.0000     1.0000 </r>
       <r>   -22.4527     0.0000     1.0000 </r>
       <r>   -22.3567     0.0000     1.0000 </r>
       <r>   -22.2607     0.0000     1.0000 </r>
       <r>   -22.1647     0.0000     1.0000 </r>
       <r>   -22.0687     0.0000     1.0000 </r>
       <r>   -21.9727     0.0000     1.0000 </r>
       <r>   -21.8767     0.0000     1.0000 </r>
       <r>   -21.7807     0.0000     1.0000 </r>
       <r>   -21.6848     0.0000     1.0000 </r>
       <r>   -21.5888     0.0000     1.0000 </r>
       <r>   -21.4928     0.0000     1.0000 </r>
       <r>   -21.3968     0.0000     1.0000 </r>
       <r>   -21.3008     0.0000     1.0000 </r>
       <r>   -21.2048     0.0000     1.0000 </r>
       <r>   -21.1088     0.0000     1.0000 </r>
       <r>   -21.0128     0.0000     1.0000 </r>
       <r>   -20.9168     0.0000     1.0000 </r>
       <r>   -20.8208     0.0000     1.0000 </r>
       <r>   -20.7248     0.0000     1.0000 </r>
       <r>   -20.6288     0.0000     1.0000 </r>
       <r>   -20.5328     0.0000     1.0000 </r>
       <r>   -20.4368     0.0000     1.0000 </r>
       <r>   -20.3408     0.0000     1.0000 </r>
       <r>   -20.2448     0.0000     1.0000 </r>
       <r>   -20.1488     0.0000     1.0000 </r>
       <r>   -20.0529     0.0000     1.0000 </r>
       <r>   -19.9569     0.0000     1.0000 </r>
       <r>   -19.8609     0.0000     1.0000 </r>
       <r>   -19.7649     0.0000     1.0000 </r>
       <r>   -19.6689     0.0000     1.0000 </r>
       <r>   -19.5729     0.0000     1.0000 </r>
       <r>   -19.4769     0.0000     1.0000 </r>
       <r>   -19.3809     0.0000     1.0000 </r>
       <r>   -19.2849     0.0000     1.0000 </r>
       <r>   -19.1889     0.0000     1.0000 </r>
       <r>   -19.0929     0.0000     1.0000 </r>
       <r>   -18.9969     0.0000     1.0000 </r>
       <r>   -18.9009     0.0000     1.0000 </r>
       <r>   -18.8049     0.0000     1.0000 </r>
       <r>   -18.7089     0.0000     1.0000 </r>
       <r>   -18.6129     0.0000     1.0000 </r>
       <r>   -18.5169     0.0000     1.0000 </r>
       <r>   -18.4210     0.0000     1.0000 </r>
       <r>   -18.3250     0.0000     1.0000 </r>
       <r>   -18.2290     0.0000     1.0000 </r>
       <r>   -18.1330     0.0000     1.0000 </r>
       <r>   -18.0370     0.0000     1.0000 </r>
       <r>   -17.9410     0.0000     1.0000 </r>
       <r>   -17.8450     0.0000     1.0000 </r>
       <r>   -17.7490     0.0000     1.0000 </r>
       <r>   -17.6530     0.0000     1.0000 </r>
       <r>   -17.5570     0.0000     1.0000 </r>
       <r>   -17.4610     0.0000     1.0000 </r>
       <r>   -17.3650     0.0000     1.0000 </r>
       <r>   -17.2690     0.0000     1.0000 </r>
       <r>   -17.1730     0.0000     1.0000 </r>
       <r>   -17.0770     0.0000     1.0000 </r>
       <r>   -16.9810     0.0000     1.0000 </r>
       <r>   -16.8850     0.0000     1.0000 </r>
       <r>   -16.7890     0.0000     1.0000 </r>
       <r>   -16.6931     0.0000     1.0000 </r>
       <r>   -16.5971     0.0000     1.0000 </r>
       <r>   -16.5011     0.0000     1.0000 </r>
       <r>   -16.4051     0.0000     1.0000 </r>
       <r>   -16.3091     0.0000     1.0000 </r>
       <r>   -16.2131     0.0000     1.0000 </r>
       <r>   -16.1171     0.0000     1.0000 </r>
       <r>   -16.0211     0.0000     1.0000 </r>
       <r>   -15.9251     0.0000     1.0000 </r>
       <r>   -15.8291     0.0000     1.0000 </r>
       <r>   -15.7331     0.0000     1.0000 </r>
       <r>   -15.6371     0.0000     1.0000 </r>
       <r>   -15.5411     0.0000     1.0000 </r>
       <r>   -15.4451     0.0000     1.0000 </r>
       <r>   -15.3491     0.0000     1.0000 </r>
       <r>   -15.2531     0.0000     1.0000 </r>
       <r>   -15.1571     0.0000     1.0000 </r>
       <r>   -15.0612     0.0000     1.0000 </r>
       <r>   -14.9652     0.0000     1.0000 </r>
       <r>   -14.8692     0.0000     1.0000 </r>
       <r>   -14.7732     0.0000     1.0000 </r>
       <r>   -14.6772     0.0000     1.0000 </r>
       <r>   -14.5812     0.0000     1.0000 </r>
       <r>   -14.4852     0.0000     1.0000 </r>
       <r>   -14.3892     0.0000     1.0000 </r>
       <r>   -14.2932     0.0000     1.0000 </r>
       <r>   -14.1972     0.0000     1.0000 </r>
       <r>   -14.1012     0.0000     1.0000 </r>
       <r>   -14.0052     0.0000     1.0000 </r>
       <r>   -13.9092     0.0000     1.0000 </r>
       <r>   -13.8132     0.0000     1.0000 </r>
       <r>   -13.7172     0.0000     1.0000 </r>
       <r>   -13.6212     0.0000     1.0000 </r>
       <r>   -13.5252     0.0011     1.0001 </r>
       <r>   -13.4293     0.0061     1.0007 </r>
       <r>   -13.3333     0.0417     1.0047 </r>
       <r>   -13.2373     0.2760     1.0312 </r>
       <r>   -13.1413     1.5507     1.1801 </r>
       <r>   -13.0453     4.3708     1.5996 </r>
       <r>   -12.9493     3.2419     1.9108 </r>
       <r>   -12.8533     0.7815     1.9858 </r>
       <r>   -12.7573     0.1255     1.9979 </r>
       <r>   -12.6613     0.0000     2.0000 </r>
       <r>   -12.5653     0.0000     2.0000 </r>
       <r>   -12.4693     0.0000     2.0000 </r>
       <r>   -12.3733     0.0000     2.0000 </r>
       <r>   -12.2773     0.0000     2.0000 </r>
       <r>   -12.1813     0.0000     2.0000 </r>
       <r>   -12.0853     0.0000     2.0000 </r>
       <r>   -11.9893     0.0000     2.0000 </r>
       <r>   -11.8933     0.0000     2.0000 </r>
       <r>   -11.7974     0.0000     2.0000 </r>
       <r>   -11.7014     0.0000     2.0000 </r>
       <r>   -11.6054     0.0000     2.0000 </r>
       <r>   -11.5094     0.0000     2.0000 </r>
       <r>   -11.4134     0.0000     2.0000 </r>
       <r>   -11.3174     0.0000     2.0000 </r>
       <r>   -11.2214     0.0000     2.0000 </r>
       <r>   -11.1254     0.0000     2.0000 </r>
       <r>   -11.0294     0.0000     2.0000 </r>
       <r>   -10.9334     0.0000     2.0000 </r>
       <r>   -10.8374     0.0000     2.0000 </r>
       <r>   -10.7414     0.0000     2.0000 </r>
       <r>   -10.6454     0.0000     2.0000 </r>
       <r>   -10.5494     0.0000     2.0000 </r>
       <r>   -10.4534     0.0000     2.0000 </r>
       <r>   -10.3574     0.0000     2.0000 </r>
       <r>   -10.2614     0.0000     2.0000 </r>
       <r>   -10.1655     0.0000     2.0000 </r>
       <r>   -10.0695     0.0000     2.0000 </r>
       <r>    -9.9735     0.0000     2.0000 </r>
       <r>    -9.8775     0.0000     2.0000 </r>
       <r>    -9.7815     0.0000     2.0000 </r>
       <r>    -9.6855     0.0013     2.0001 </r>
       <r>    -9.5895     0.0078     2.0009 </r>
       <r>    -9.4935     0.0527     2.0059 </r>
       <r>    -9.3975     0.3457     2.0391 </r>
       <r>    -9.3015     1.8563     2.2173 </r>
       <r>    -9.2055     4.5534     2.6544 </r>
       <r>    -9.1095     2.8515     2.9281 </r>
       <r>    -9.0135     0.6317     2.9888 </r>
       <r>    -8.9175     0.0996     2.9983 </r>
       <r>    -8.8215     0.0000     3.0000 </r>
       <r>    -8.7255     0.0000     3.0000 </r>
       <r>    -8.6295     0.0000     3.0000 </r>
       <r>    -8.5335     0.0000     3.0000 </r>
       <r>    -8.4376     0.0000     3.0000 </r>
       <r>    -8.3416     0.0000     3.0000 </r>
       <r>    -8.2456     0.0000     3.0000 </r>
       <r>    -8.1496     0.0000     3.0000 </r>
       <r>    -8.0536     0.0000     3.0000 </r>
       <r>    -7.9576     0.0000     3.0000 </r>
       <r>    -7.8616     0.0000     3.0000 </r>
       <r>    -7.7656     0.0000     3.0000 </r>
       <r>    -7.6696     0.0000     3.0000 </r>
       <r>    -7.5736     0.0033     3.0003 </r>
       <r>    -7.4776     0.0193     3.0022 </r>
       <r>    -7.3816     0.1300     3.0147 </r>
       <r>    -7.2856     0.8070     3.0921 </r>
       <r>    -7.1896     3.3011     3.4090 </r>
       <r>    -7.0936     4.3353     3.8252 </r>
       <r>    -6.9976     1.5073     3.9699 </r>
       <r>    -6.9016     0.2666     3.9955 </r>
       <r>    -6.8057     0.0403     3.9993 </r>
       <r>    -6.7097     0.0000     4.0000 </r>
       <r>    -6.6137     0.0000     4.0000 </r>
       <r>    -6.5177     0.0000     4.0000 </r>
       <r>    -6.4217     0.0000     4.0000 </r>
       <r>    -6.3257     0.0000     4.0000 </r>
       <r>    -6.2297     0.0000     4.0000 </r>
       <r>    -6.1337     0.0000     4.0000 </r>
       <r>    -6.0377     0.0000     4.0000 </r>
       <r>    -5.9417     0.0000     4.0000 </r>
       <r>    -5.8457     0.0000     4.0000 </r>
       <r>    -5.7497     0.0000     4.0000 </r>
       <r>    -5.6537     0.0000     4.0000 </r>
       <r>    -5.5577     0.0000     4.0000 </r>
       <r>    -5.4617     0.0000     4.0000 </r>
       <r>    -5.3657     0.0000     4.0000 </r>
       <r>    -5.2697     0.0000     4.0000 </r>
       <r>    -5.1738     0.0000     4.0000 </r>
       <r>    -5.0778     0.0000     4.0000 </r>
       <r>    -4.9818     0.0000     4.0000 </r>
       <r>    -4.8858     0.0000     4.0000 </r>
       <r>    -4.7898     0.0000     4.0000 </r>
       <r>    -4.6938     0.0000     4.0000 </r>
       <r>    -4.5978     0.0000     4.0000 </r>
       <r>    -4.5018     0.0000     4.0000 </r>
       <r>    -4.4058     0.0000     4.0000 </r>
       <r>    -4.3098     0.0000     4.0000 </r>
       <r>    -4.2138     0.0000     4.0000 </r>
       <r>    -4.1178     0.0000     4.0000 </r>
       <r>    -4.0218     0.0000     4.0000 </r>
       <r>    -3.9258     0.0000     4.0000 </r>
       <r>    -3.8298     0.0000     4.0000 </r>
       <r>    -3.7338     0.0000     4.0000 </r>
       <r>    -3.6378     0.0000     4.0000 </r>
       <r>    -3.5419     0.0000     4.0000 </r>
       <r>    -3.4459     0.0000     4.0000 </r>
       <r>    -3.3499     0.0000     4.0000 </r>
       <r>    -3.2539     0.0000     4.0000 </r>
       <r>    -3.1579     0.0000     4.0000 </r>
       <r>    -3.0619     0.0000     4.0000 </r>
       <r>    -2.9659     0.0000     4.0000 </r>
       <r>    -2.8699     0.0000     4.0000 </r>
       <r>    -2.7739     0.0000     4.0000 </r>
       <r>    -2.6779     0.0000     4.0000 </r>
       <r>    -2.5819     0.0000     4.0000 </r>
       <r>    -2.4859     0.0000     4.0000 </r>
       <r>    -2.3899     0.0000     4.0000 </r>
       <r>    -2.2939     0.0000     4.0000 </r>
       <r>    -2.1979     0.0000     4.0000 </r>
       <r>    -2.1019     0.0000     4.0000 </r>
       <r>    -2.0059     0.0000     4.0000 </r>
       <r>    -1.9100     0.0000     4.0000 </r>
       <r>    -1.8140     0.0000     4.0000 </r>
       <r>    -1.7180     0.0000     4.0000 </r>
       <r>    -1.6220     0.0000     4.0000 </r>
       <r>    -1.5260     0.0000     4.0000 </r>
       <r>    -1.4300     0.0016     4.0002 </r>
       <r>    -1.3340     0.0094     4.0011 </r>
       <r>    -1.2380     0.0634     4.0071 </r>
       <r>    -1.1420     0.4123     4.0467 </r>
       <r>    -1.0460     2.1228     4.2505 </r>
       <r>    -0.9500     4.6312     4.6951 </r>
       <r>    -0.8540     2.5470     4.9396 </r>
       <r>    -0.7580     0.5323     4.9907 </r>
       <r>    -0.6620     0.0829     4.9986 </r>
       <r>    -0.5660     0.0000     5.0000 </r>
       <r>    -0.4700     0.0006     5.0001 </r>
       <r>    -0.3740     0.0038     5.0004 </r>
       <r>    -0.2780     0.0254     5.0029 </r>
       <r>    -0.1821     0.1706     5.0192 </r>
       <r>    -0.0861     1.0602     5.1210 </r>
       <r>     0.0099     4.4411     5.5473 </r>
       <r>     0.1059     7.7923     6.2954 </r>
       <r>     0.2019     6.1988     6.8904 </r>
       <r>     0.2979     4.8430     7.3553 </r>
       <r>     0.3939     7.7688     8.1011 </r>
       <r>     0.4899     6.8645     8.7606 </r>
       <r>     0.5859     3.5377     9.1008 </r>
       <r>     0.6819     5.3265     9.6121 </r>
       <r>     0.7779     8.1319    10.3937 </r>
       <r>     0.8739     7.9901    11.1616 </r>
       <r>     0.9699     6.0681    11.7441 </r>
       <r>     1.0659     2.1904    11.9543 </r>
       <r>     1.1619     0.3994    11.9931 </r>
       <r>     1.2579     0.0559    11.9991 </r>
       <r>     1.3539     0.0000    12.0000 </r>
       <r>     1.4498     0.0000    12.0000 </r>
       <r>     1.5458     0.0000    12.0000 </r>
       <r>     1.6418     0.0000    12.0000 </r>
       <r>     1.7378     0.0000    12.0000 </r>
       <r>     1.8338     0.0000    12.0000 </r>
       <r>     1.9298     0.0000    12.0000 </r>
       <r>     2.0258     0.0000    12.0000 </r>
       <r>     2.1218     0.0000    12.0000 </r>
       <r>     2.2178     0.0000    12.0000 </r>
      </set>
      <set comment="spin 2">
       <r>   -26.5805     0.0000     0.0000 </r>
       <r>   -26.4845     0.0000     0.0000 </r>
       <r>   -26.3885     0.0000     0.0000 </r>
       <r>   -26.2925     0.0000     0.0000 </r>
       <r>   -26.1965     0.0000     0.0000 </r>
       <r>   -26.1005     0.0000     0.0000 </r>
       <r>   -26.0045     0.0000     0.0000 </r>
       <r>   -25.9085     0.0000     0.0000 </r>
       <r>   -25.8125     0.0000     0.0000 </r>
       <r>   -25.7165     0.0014     0.0001 </r>
       <r>   -25.6205     0.0082     0.0009 </r>
       <r>   -25.5245     0.0555     0.0062 </r>
       <r>   -25.4285     0.3633     0.0411 </r>
       <r>   -25.3325     1.9290     0.2263 </r>
       <r>   -25.2365     4.5814     0.6661 </r>
       <r>   -25.1405     2.7652     0.9315 </r>
       <r>   -25.0445     0.6022     0.9893 </r>
       <r>   -24.9486     0.0946     0.9984 </r>
       <r>   -24.8526     0.0000     1.0000 </r>
       <r>   -24.7566     0.0000     1.0000 </r>
       <r>   -24.6606     0.0000     1.0000 </r>
       <r>   -24.5646     0.0000     1.0000 </r>
       <r>   -24.4686     0.0000     1.0000 </r>
       <r>   -24.3726     0.0000     1.0000 </r>
       <r>   -24.2766     0.0000     1.0000 </r>
       <r>   -24.1806     0.0000     1.0000 </r>
       <r>   -24.0846     0.0000     1.0000 </r>
       <r>   -23.9886     0.0000     1.0000 </r>
       <r>   -23.8926     0.0000     1.0000 </r>
       <r>   -23.7966     0.0000     1.0000 </r>
       <r>   -23.7006     0.0000     1.0000 </r>
       <r>   -23.6046     0.0000     1.0000 </r>
       <r>   -23.5086     0.0000     1.0000 </r>
       <r>   -23.4126     0.0000     1.0000 </r>
       <r>   -23.3167     0.0000     1.0000 </r>
       <r>   -23.2207     0.0000     1.0000 </r>
       <r>   -23.1247     0.0000     1.0000 </r>
       <r>   -23.0287     0.0000     1.0000 </r>
       <r>   -22.9327     0.0000     1.0000 </r>
       <r>   -22.8367     0.0000     1.0000 </r>
       <r>   -22.7407     0.0000     1.0000 </r>
       <r>   -22.6447     0.0000     1.0000 </r>
       <r>   -22.5487     0.0000     1.0000 </r>
       <r>   -22.4527     0.0000     1.0000 </r>
       <r>   -22.3567     0.0000     1.0000 </r>
       <r>   -22.2607     0.0000     1.0000 </r>
       <r>   -22.1647     0.0000     1.0000 </r>
       <r>   -22.0687     0.0000     1.0000 </r>
       <r>   -21.9727     0.0000     1.0000 </r>
       <r>   -21.8767     0.0000     1.0000 </r>
       <r>   -21.7807     0.0000     1.0000 </r>
       <r>   -21.6848     0.0000     1.0000 </r>
       <r>   -21.5888     0.0000     1.0000 </r>
       <r>   -21.4928     0.0000     1.0000 </r>
       <r>   -21.3968     0.0000     1.0000 </r>
       <r>   -21.3008     0.0000     1.0000 </r>
       <r>   -21.2048     0.0000     1.0000 </r>
       <r>   -21.1088     0.0000     1.0000 </r>
       <r>   -21.0128     0.0000     1.0000 </r>
       <r>   -20.9168     0.0000     1.0000 </r>
       <r>   -20.8208     0.0000     1.0000 </r>
       <r>   -20.7248     0.0000     1.0000 </r>
       <r>   -20.6288     0.0000     1.0000 </r>
       <r>   -20.5328     0.0000     1.0000 </r>
       <r>   -20.4368     0.0000     1.0000 </r>
       <r>   -20.3408     0.0000     1.0000 </r>
       <r>   -20.2448     0.0000     1.0000 </r>
       <r>   -20.1488     0.0000     1.0000 </r>
       <r>   -20.0529     0.0000     1.0000 </r>
       <r>   -19.9569     0.0000     1.0000 </r>
       <r>   -19.8609     0.0000     1.0000 </r>
       <r>   -19.7649     0.0000     1.0000 </r>
       <r>   -19.6689     0.0000     1.0000 </r>
       <r>   -19.5729     0.0000     1.0000 </r>
       <r>   -19.4769     0.0000     1.0000 </r>
       <r>   -19.3809     0.0000     1.0000 </r>
       <r>   -19.2849     0.0000     1.0000 </r>
       <r>   -19.1889     0.0000     1.0000 </r>
       <r>   -19.0929     0.0000     1.0000 </r>
       <r>   -18.9969     0.0000     1.0000 </r>
       <r>   -18.9009     0.0000     1.0000 </r>
       <r>   -18.8049     0.0000     1.0000 </r>
       <r>   -18.7089     0.0000     1.0000 </r>
       <r>   -18.6129     0.0000     1.0000 </r>
       <r>   -18.5169     0.0000     1.0000 </r>
       <r>   -18.4210     0.0000     1.0000 </r>
       <r>   -18.3250     0.0000     1.0000 </r>
       <r>   -18.2290     0.0000     1.0000 </r>
       <r>   -18.1330     0.0000     1.0000 </r>
       <r>   -18.0370     0.0000     1.0000 </r>
       <r>   -17.9410     0.0000     1.0000 </r>
       <r>   -17.8450     0.0000     1.0000 </r>
       <r>   -17.7490     0.0000     1.0000 </r>
       <r>   -17.6530     0.0000     1.0000 </r>
       <r>   -17.5570     0.0000     1.0000 </r>
       <r>   -17.4610     0.0000     1.0000 </r>
       <r>   -17.3650     0.0000     1.0000 </r>
       <r>   -17.2690     0.0000     1.0000 </r>
       <r>   -17.1730     0.0000     1.0000 </r>
       <r>   -17.0770     0.0000     1.0000 </r>
       <r>   -16.9810     0.0000     1.0000 </r>
       <r>   -16.8850     0.0000     1.0000 </r>
       <r>   -16.7890     0.0000     1.0000 </r>
       <r>   -16.6931     0.0000     1.0000 </r>
       <r>   -16.5971     0.0000     1.0000 </r>
       <r>   -16.5011     0.0000     1.0000 </r>
       <r>   -16.4051     0.0000     1.0000 </r>
       <r>   -16.3091     0.0000     1.0000 </r>
       <r>   -16.2131     0.0000     1.0000 </r>
       <r>   -16.1171     0.0000     1.0000 </r>
       <r>   -16.0211     0.0000     1.0000 </r>
       <r>   -15.9251     0.0000     1.0000 </r>
       <r>   -15.8291     0.0000     1.0000 </r>
       <r>   -15.7331     0.0000     1.0000 </r>
       <r>   -15.6371     0.0000     1.0000 </r>
       <r>   -15.5411     0.0000     1.0000 </r>
       <r>   -15.4451     0.0000     1.0000 </r>
       <r>   -15.3491     0.0000     1.0000 </r>
       <r>   -15.2531     0.0000     1.0000 </r>
       <r>   -15.1571     0.0000     1.0000 </r>
       <r>   -15.0612     0.0000     1.0000 </r>
       <r>   -14.9652     0.0000     1.0000 </r>
       <r>   -14.8692     0.0000     1.0000 </r>
       <r>   -14.7732     0.0000     1.0000 </r>
       <r>   -14.6772     0.0000     1.0000 </r>
       <r>   -14.5812     0.0000     1.0000 </r>
       <r>   -14.4852     0.0000     1.0000 </r>
       <r>   -14.3892     0.0000     1.0000 </r>
       <r>   -14.2932     0.0000     1.0000 </r>
       <r>   -14.1972     0.0000     1.0000 </r>
       <r>   -14.1012     0.0000     1.0000 </r>
       <r>   -14.0052     0.0000     1.0000 </r>
       <r>   -13.9092     0.0000     1.0000 </r>
       <r>   -13.8132     0.0000     1.0000 </r>
       <r>   -13.7172     0.0000     1.0000 </r>
       <r>   -13.6212     0.0000     1.0000 </r>
       <r>   -13.5252     0.0011     1.0001 </r>
       <r>   -13.4293     0.0061     1.0007 </r>
       <r>   -13.3333     0.0416     1.0047 </r>
       <r>   -13.2373     0.2751     1.0311 </r>
       <r>   -13.1413     1.5466     1.1796 </r>
       <r>   -13.0453     4.3676     1.5988 </r>
       <r>   -12.9493     3.2474     1.9106 </r>
       <r>   -12.8533     0.7839     1.9858 </r>
       <r>   -12.7573     0.1260     1.9979 </r>
       <r>   -12.6613     0.0000     2.0000 </r>
       <r>   -12.5653     0.0000     2.0000 </r>
       <r>   -12.4693     0.0000     2.0000 </r>
       <r>   -12.3733     0.0000     2.0000 </r>
       <r>   -12.2773     0.0000     2.0000 </r>
       <r>   -12.1813     0.0000     2.0000 </r>
       <r>   -12.0853     0.0000     2.0000 </r>
       <r>   -11.9893     0.0000     2.0000 </r>
       <r>   -11.8933     0.0000     2.0000 </r>
       <r>   -11.7974     0.0000     2.0000 </r>
       <r>   -11.7014     0.0000     2.0000 </r>
       <r>   -11.6054     0.0000     2.0000 </r>
       <r>   -11.5094     0.0000     2.0000 </r>
       <r>   -11.4134     0.0000     2.0000 </r>
       <r>   -11.3174     0.0000     2.0000 </r>
       <r>   -11.2214     0.0000     2.0000 </r>
       <r>   -11.1254     0.0000     2.0000 </r>
       <r>   -11.0294     0.0000     2.0000 </r>
       <r>   -10.9334     0.0000     2.0000 </r>
       <r>   -10.8374     0.0000     2.0000 </r>
       <r>   -10.7414     0.0000     2.0000 </r>
       <r>   -10.6454     0.0000     2.0000 </r>
       <r>   -10.5494     0.0000     2.0000 </r>
       <r>   -10.4534     0.0000     2.0000 </r>
       <r>   -10.3574     0.0000     2.0000 </r>
       <r>   -10.2614     0.0000     2.0000 </r>
       <r>   -10.1655     0.0000     2.0000 </r>
       <r>   -10.0695     0.0000     2.0000 </r>
       <r>    -9.9735     0.0000     2.0000 </r>
       <r>    -9.8775     0.0000     2.0000 </r>
       <r>    -9.7815     0.0000     2.0000 </r>
       <r>    -9.6855     0.0013     2.0001 </r>
       <r>    -9.5895     0.0077     2.0009 </r>
       <r>    -9.4935     0.0524     2.0059 </r>
       <r>    -9.3975     0.3438     2.0389 </r>
       <r>    -9.3015     1.8482     2.2163 </r>
       <r>    -9.2055     4.5499     2.6531 </r>
       <r>    -9.1095     2.8612     2.9277 </r>
       <r>    -9.0135     0.6351     2.9887 </r>
       <r>    -8.9175     0.1002     2.9983 </r>
       <r>    -8.8215     0.0000     3.0000 </r>
       <r>    -8.7255     0.0000     3.0000 </r>
       <r>    -8.6295     0.0000     3.0000 </r>
       <r>    -8.5335     0.0000     3.0000 </r>
       <r>    -8.4376     0.0000     3.0000 </r>
       <r>    -8.3416     0.0000     3.0000 </r>
       <r>    -8.2456     0.0000     3.0000 </r>
       <r>    -8.1496     0.0000     3.0000 </r>
       <r>    -8.0536     0.0000     3.0000 </r>
       <r>    -7.9576     0.0000     3.0000 </r>
       <r>    -7.8616     0.0000     3.0000 </r>
       <r>    -7.7656     0.0000     3.0000 </r>
       <r>    -7.6696     0.0000     3.0000 </r>
       <r>    -7.5736     0.0033     3.0003 </r>
       <r>    -7.4776     0.0192     3.0022 </r>
       <r>    -7.3816     0.1288     3.0145 </r>
       <r>    -7.2856     0.7998     3.0913 </r>
       <r>    -7.1896     3.2846     3.4066 </r>
       <r>    -7.0936     4.3454     3.8237 </r>
       <r>    -6.9976     1.5194     3.9696 </r>
       <r>    -6.9016     0.2692     3.9954 </r>
       <r>    -6.8057     0.0407     3.9993 </r>
       <r>    -6.7097     0.0000     4.0000 </r>
       <r>    -6.6137     0.0000     4.0000 </r>
       <r>    -6.5177     0.0000     4.0000 </r>
       <r>    -6.4217     0.0000     4.0000 </r>
       <r>    -6.3257     0.0000     4.0000 </r>
       <r>    -6.2297     0.0000     4.0000 </r>
       <r>    -6.1337     0.0000     4.0000 </r>
       <r>    -6.0377     0.0000     4.0000 </r>
       <r>    -5.9417     0.0000     4.0000 </r>
       <r>    -5.8457     0.0000     4.0000 </r>
       <r>    -5.7497     0.0000     4.0000 </r>
       <r>    -5.6537     0.0000     4.0000 </r>
       <r>    -5.5577     0.0000     4.0000 </r>
       <r>    -5.4617     0.0000     4.0000 </r>
       <r>    -5.3657     0.0000     4.0000 </r>
       <r>    -5.2697     0.0000     4.0000 </r>
       <r>    -5.1738     0.0000     4.0000 </r>
       <r>    -5.0778     0.0000     4.0000 </r>
       <r>    -4.9818     0.0000     4.0000 </r>
       <r>    -4.8858     0.0000     4.0000 </r>
       <r>    -4.7898     0.0000     4.0000 </r>
       <r>    -4.6938     0.0000     4.0000 </r>
       <r>    -4.5978     0.0000     4.0000 </r>
       <r>    -4.5018     0.0000     4.0000 </r>
       <r>    -4.4058     0.0000     4.0000 </r>
       <r>    -4.3098     0.0000     4.0000 </r>
       <r>    -4.2138     0.0000     4.0000 </r>
       <r>    -4.1178     0.0000     4.0000 </r>
       <r>    -4.0218     0.0000     4.0000 </r>
       <r>    -3.9258     0.0000     4.0000 </r>
       <r>    -3.8298     0.0000     4.0000 </r>
       <r>    -3.7338     0.0000     4.0000 </r>
       <r>    -3.6378     0.0000     4.0000 </r>
       <r>    -3.5419     0.0000     4.0000 </r>
       <r>    -3.4459     0.0000     4.0000 </r>
       <r>    -3.3499     0.0000     4.0000 </r>
       <r>    -3.2539     0.0000     4.0000 </r>
       <r>    -3.1579     0.0000     4.0000 </r>
       <r>    -3.0619     0.0000     4.0000 </r>
       <r>    -2.9659     0.0000     4.0000 </r>
       <r>    -2.8699     0.0000     4.0000 </r>
       <r>    -2.7739     0.0000     4.0000 </r>
       <r>    -2.6779     0.0000     4.0000 </r>
       <r>    -2.5819     0.0000     4.0000 </r>
       <r>    -2.4859     0.0000     4.0000 </r>
       <r>    -2.3899     0.0000     4.0000 </r>
       <r>    -2.2939     0.0000     4.0000 </r>
       <r>    -2.1979     0.0000     4.0000 </r>
       <r>    -2.1019     0.0000     4.0000 </r>
       <r>    -2.0059     0.0000     4.0000 </r>
       <r>    -1.9100     0.0000     4.0000 </r>
       <r>    -1.8140     0.0000     4.0000 </r>
       <r>    -1.7180     0.0000     4.0000 </r>
       <r>    -1.6220     0.0000     4.0000 </r>
       <r>    -1.5260     0.0000     4.0000 </r>
       <r>    -1.4300     0.0016     4.0002 </r>
       <r>    -1.3340     0.0093     4.0010 </r>
       <r>    -1.2380     0.0631     4.0071 </r>
       <r>    -1.1420     0.4108     4.0465 </r>
       <r>    -1.0460     2.1170     4.2498 </r>
       <r>    -0.9500     4.6302     4.6942 </r>
       <r>    -0.8540     2.5533     4.9393 </r>
       <r>    -0.7580     0.5342     4.9906 </r>
       <r>    -0.6620     0.0833     4.9986 </r>
       <r>    -0.5660     0.0000     5.0000 </r>
       <r>    -0.4700     0.0006     5.0001 </r>
       <r>    -0.3740     0.0038     5.0004 </r>
       <r>    -0.2780     0.0255     5.0029 </r>
       <r>    -0.1821     0.1710     5.0193 </r>
       <r>    -0.0861     1.0623     5.1213 </r>
       <r>     0.0099     4.4434     5.5478 </r>
       <r>     0.1059     7.7841     6.2950 </r>
       <r>     0.2019     6.2093     6.8911 </r>
       <r>     0.2979     4.8828     7.3598 </r>
       <r>     0.3939     7.8056     8.1091 </r>
       <r>     0.4899     6.8318     8.7655 </r>
       <r>     0.5859     3.5050     9.1025 </r>
       <r>     0.6819     5.2321     9.6048 </r>
       <r>     0.7779     7.8223    10.3567 </r>
       <r>     0.8739     8.1616    11.1410 </r>
       <r>     0.9699     6.2471    11.7407 </r>
       <r>     1.0659     2.2211    11.9539 </r>
       <r>     1.1619     0.4036    11.9931 </r>
       <r>     1.2579     0.0556    11.9991 </r>
       <r>     1.3539     0.0000    12.0000 </r>
       <r>     1.4498     0.0000    12.0000 </r>
       <r>     1.5458     0.0000    12.0000 </r>
       <r>     1.6418     0.0000    12.0000 </r>
       <r>     1.7378     0.0000    12.0000 </r>
       <r>     1.8338     0.0000    12.0000 </r>
       <r>     1.9298     0.0000    12.0000 </r>
       <r>     2.0258     0.0000    12.0000 </r>
       <r>     2.1218     0.0000    12.0000 </r>
       <r>     2.2178     0.0000    12.0000 </r>
      </set>
     </set>
    </array>
   </total>
   <partial>
    <array>
     <dimension dim="1">gridpoints</dimension>
     <dimension dim="2">spin</dimension>
     <dimension dim="3">ion</dimension>
     <field>energy</field>
     <field>    s</field>
     <field>   py</field>
     <field>   pz</field>
     <field>   px</field>
     <field>  dxy</field>
     <field>  dyz</field>
     <field>  dz2</field>
     <field>  dxz</field>
     <field>x2-y2</field>
     <set>
      <set comment="ion 1">
       <set comment="spin 1">
        <r>   -26.5805     0.0000     0.0000     0.0000     0.0000     0.0000     0.0000     0.0000     0.0000     0.0000 </r>
        <r>   -26.4845     0.0000     0.0000     0.0000     0.0000     0.0000     0.0000     0.0000     0.0000     0.0000 </r>
        <r>   -26.3885     0.0000     0.0000     0.0000     0.0000     0.0000     0.0000     0.0000     0.0000     0.0000 </r>
        <r>   -26.2925     0.0000     0.0000     0.0000     0.0000     0.0000     0.0000     0.0000     0.0000     0.0000 </r>
        <r>   -26.1965     0.0000     0.0000     0.0000     0.0000     0.0000     0.0000     0.0000     0.0000     0.0000 </r>
        <r>   -26.1005     0.0000     0.0000     0.0000     0.0000     0.0000     0.0000     0.0000     0.0000     0.0000 </r>
        <r>   -26.0045     0.0000     0.0000     0.0000     0.0000     0.0000     0.0000     0.0000     0.0000     0.0000 </r>
        <r>   -25.9085     0.0000     0.0000     0.0000     0.0000     0.0000     0.0000     0.0000     0.0000     0.0000 </r>
        <r>   -25.8125     0.0000     0.0000     0.0000     0.0000     0.0000     0.0000     0.0000     0.0000     0.0000 </r>
        <r>   -25.7165     0.0001     0.0000     0.0000     0.0000     0.0000     0.0000     0.0000     0.0000     0.0000 </r>
        <r>   -25.6205     0.0008     0.0000     0.0002     0.0000     0.0000     0.0000     0.0000     0.0000     0.0000 </r>
        <r>   -25.5245     0.0054     0.0000     0.0012     0.0000     0.0000     0.0000     0.0000     0.0000     0.0000 </r>
        <r>   -25.4285     0.0356     0.0000     0.0075     0.0000     0.0000     0.0000     0.0000     0.0000     0.0000 </r>
        <r>   -25.3325     0.1890     0.0000     0.0400     0.0001     0.0000     0.0000     0.0000     0.0000     0.0000 </r>
        <r>   -25.2365     0.4467     0.0001     0.0945     0.0003     0.0000     0.0000     0.0000     0.0000     0.0000 </r>
        <r>   -25.1405     0.2682     0.0001     0.0568     0.0002     0.0000     0.0000     0.0000     0.0000     0.0000 </r>
        <r>   -25.0445     0.0583     0.0000     0.0123     0.0000     0.0000     0.0000     0.0000     0.0000     0.0000 </r>
        <r>   -24.9486     0.0092     0.0000     0.0019     0.0000     0.0000     0.0000     0.0000     0.0000     0.0000 </r>
        <r>   -24.8526     0.0000     0.0000     0.0000     0.0000     0.0000     0.0000     0.0000     0.0000     0.0000 </r>
        <r>   -24.7566     0.0000     0.0000     0.0000     0.0000     0.0000     0.0000     0.0000     0.0000     0.0000 </r>
        <r>   -24.6606     0.0000     0.0000     0.0000     0.0000     0.0000     0.0000     0.0000     0.0000     0.0000 </r>
        <r>   -24.5646     0.0000     0.0000     0.0000     0.0000     0.0000     0.0000     0.0000     0.0000     0.0000 </r>
        <r>   -24.4686     0.0000     0.0000     0.0000     0.0000     0.0000     0.0000     0.0000     0.0000     0.0000 </r>
        <r>   -24.3726     0.0000     0.0000     0.0000     0.0000     0.0000     0.0000     0.0000     0.0000     0.0000 </r>
        <r>   -24.2766     0.0000     0.0000     0.0000     0.0000     0.0000     0.0000     0.0000     0.0000     0.0000 </r>
        <r>   -24.1806     0.0000     0.0000     0.0000     0.0000     0.0000     0.0000     0.0000     0.0000     0.0000 </r>
        <r>   -24.0846     0.0000     0.0000     0.0000     0.0000     0.0000     0.0000     0.0000     0.0000     0.0000 </r>
        <r>   -23.9886     0.0000     0.0000     0.0000     0.0000     0.0000     0.0000     0.0000     0.0000     0.0000 </r>
        <r>   -23.8926     0.0000     0.0000     0.0000     0.0000     0.0000     0.0000     0.0000     0.0000     0.0000 </r>
        <r>   -23.7966     0.0000     0.0000     0.0000     0.0000     0.0000     0.0000     0.0000     0.0000     0.0000 </r>
        <r>   -23.7006     0.0000     0.0000     0.0000     0.0000     0.0000     0.0000     0.0000     0.0000     0.0000 </r>
        <r>   -23.6046     0.0000     0.0000     0.0000     0.0000     0.0000     0.0000     0.0000     0.0000     0.0000 </r>
        <r>   -23.5086     0.0000     0.0000     0.0000     0.0000     0.0000     0.0000     0.0000     0.0000     0.0000 </r>
        <r>   -23.4126     0.0000     0.0000     0.0000     0.0000     0.0000     0.0000     0.0000     0.0000     0.0000 </r>
        <r>   -23.3167     0.0000     0.0000     0.0000     0.0000     0.0000     0.0000     0.0000     0.0000     0.0000 </r>
        <r>   -23.2207     0.0000     0.0000     0.0000     0.0000     0.0000     0.0000     0.0000     0.0000     0.0000 </r>
        <r>   -23.1247     0.0000     0.0000     0.0000     0.0000     0.0000     0.0000     0.0000     0.0000     0.0000 </r>
        <r>   -23.0287     0.0000     0.0000     0.0000     0.0000     0.0000     0.0000     0.0000     0.0000     0.0000 </r>
        <r>   -22.9327     0.0000     0.0000     0.0000     0.0000     0.0000     0.0000     0.0000     0.0000     0.0000 </r>
        <r>   -22.8367     0.0000     0.0000     0.0000     0.0000     0.0000     0.0000     0.0000     0.0000     0.0000 </r>
        <r>   -22.7407     0.0000     0.0000     0.0000     0.0000     0.0000     0.0000     0.0000     0.0000     0.0000 </r>
        <r>   -22.6447     0.0000     0.0000     0.0000     0.0000     0.0000     0.0000     0.0000     0.0000     0.0000 </r>
        <r>   -22.5487     0.0000     0.0000     0.0000     0.0000     0.0000     0.0000     0.0000     0.0000     0.0000 </r>
        <r>   -22.4527     0.0000     0.0000     0.0000     0.0000     0.0000     0.0000     0.0000     0.0000     0.0000 </r>
        <r>   -22.3567     0.0000     0.0000     0.0000     0.0000     0.0000     0.0000     0.0000     0.0000     0.0000 </r>
        <r>   -22.2607     0.0000     0.0000     0.0000     0.0000     0.0000     0.0000     0.0000     0.0000     0.0000 </r>
        <r>   -22.1647     0.0000     0.0000     0.0000     0.0000     0.0000     0.0000     0.0000     0.0000     0.0000 </r>
        <r>   -22.0687     0.0000     0.0000     0.0000     0.0000     0.0000     0.0000     0.0000     0.0000     0.0000 </r>
        <r>   -21.9727     0.0000     0.0000     0.0000     0.0000     0.0000     0.0000     0.0000     0.0000     0.0000 </r>
        <r>   -21.8767     0.0000     0.0000     0.0000     0.0000     0.0000     0.0000     0.0000     0.0000     0.0000 </r>
        <r>   -21.7807     0.0000     0.0000     0.0000     0.0000     0.0000     0.0000     0.0000     0.0000     0.0000 </r>
        <r>   -21.6848     0.0000     0.0000     0.0000     0.0000     0.0000     0.0000     0.0000     0.0000     0.0000 </r>
        <r>   -21.5888     0.0000     0.0000     0.0000     0.0000     0.0000     0.0000     0.0000     0.0000     0.0000 </r>
        <r>   -21.4928     0.0000     0.0000     0.0000     0.0000     0.0000     0.0000     0.0000     0.0000     0.0000 </r>
        <r>   -21.3968     0.0000     0.0000     0.0000     0.0000     0.0000     0.0000     0.0000     0.0000     0.0000 </r>
        <r>   -21.3008     0.0000     0.0000     0.0000     0.0000     0.0000     0.0000     0.0000     0.0000     0.0000 </r>
        <r>   -21.2048     0.0000     0.0000     0.0000     0.0000     0.0000     0.0000     0.0000     0.0000     0.0000 </r>
        <r>   -21.1088     0.0000     0.0000     0.0000     0.0000     0.0000     0.0000     0.0000     0.0000     0.0000 </r>
        <r>   -21.0128     0.0000     0.0000     0.0000     0.0000     0.0000     0.0000     0.0000     0.0000     0.0000 </r>
        <r>   -20.9168     0.0000     0.0000     0.0000     0.0000     0.0000     0.0000     0.0000     0.0000     0.0000 </r>
        <r>   -20.8208     0.0000     0.0000     0.0000     0.0000     0.0000     0.0000     0.0000     0.0000     0.0000 </r>
        <r>   -20.7248     0.0000     0.0000     0.0000     0.0000     0.0000     0.0000     0.0000     0.0000     0.0000 </r>
        <r>   -20.6288     0.0000     0.0000     0.0000     0.0000     0.0000     0.0000     0.0000     0.0000     0.0000 </r>
        <r>   -20.5328     0.0000     0.0000     0.0000     0.0000     0.0000     0.0000     0.0000     0.0000     0.0000 </r>
        <r>   -20.4368     0.0000     0.0000     0.0000     0.0000     0.0000     0.0000     0.0000     0.0000     0.0000 </r>
        <r>   -20.3408     0.0000     0.0000     0.0000     0.0000     0.0000     0.0000     0.0000     0.0000     0.0000 </r>
        <r>   -20.2448     0.0000     0.0000     0.0000     0.0000     0.0000     0.0000     0.0000     0.0000     0.0000 </r>
        <r>   -20.1488     0.0000     0.0000     0.0000     0.0000     0.0000     0.0000     0.0000     0.0000     0.0000 </r>
        <r>   -20.0529     0.0000     0.0000     0.0000     0.0000     0.0000     0.0000     0.0000     0.0000     0.0000 </r>
        <r>   -19.9569     0.0000     0.0000     0.0000     0.0000     0.0000     0.0000     0.0000     0.0000     0.0000 </r>
        <r>   -19.8609     0.0000     0.0000     0.0000     0.0000     0.0000     0.0000     0.0000     0.0000     0.0000 </r>
        <r>   -19.7649     0.0000     0.0000     0.0000     0.0000     0.0000     0.0000     0.0000     0.0000     0.0000 </r>
        <r>   -19.6689     0.0000     0.0000     0.0000     0.0000     0.0000     0.0000     0.0000     0.0000     0.0000 </r>
        <r>   -19.5729     0.0000     0.0000     0.0000     0.0000     0.0000     0.0000     0.0000     0.0000     0.0000 </r>
        <r>   -19.4769     0.0000     0.0000     0.0000     0.0000     0.0000     0.0000     0.0000     0.0000     0.0000 </r>
        <r>   -19.3809     0.0000     0.0000     0.0000     0.0000     0.0000     0.0000     0.0000     0.0000     0.0000 </r>
        <r>   -19.2849     0.0000     0.0000     0.0000     0.0000     0.0000     0.0000     0.0000     0.0000     0.0000 </r>
        <r>   -19.1889     0.0000     0.0000     0.0000     0.0000     0.0000     0.0000     0.0000     0.0000     0.0000 </r>
        <r>   -19.0929     0.0000     0.0000     0.0000     0.0000     0.0000     0.0000     0.0000     0.0000     0.0000 </r>
        <r>   -18.9969     0.0000     0.0000     0.0000     0.0000     0.0000     0.0000     0.0000     0.0000     0.0000 </r>
        <r>   -18.9009     0.0000     0.0000     0.0000     0.0000     0.0000     0.0000     0.0000     0.0000     0.0000 </r>
        <r>   -18.8049     0.0000     0.0000     0.0000     0.0000     0.0000     0.0000     0.0000     0.0000     0.0000 </r>
        <r>   -18.7089     0.0000     0.0000     0.0000     0.0000     0.0000     0.0000     0.0000     0.0000     0.0000 </r>
        <r>   -18.6129     0.0000     0.0000     0.0000     0.0000     0.0000     0.0000     0.0000     0.0000     0.0000 </r>
        <r>   -18.5169     0.0000     0.0000     0.0000     0.0000     0.0000     0.0000     0.0000     0.0000     0.0000 </r>
        <r>   -18.4210     0.0000     0.0000     0.0000     0.0000     0.0000     0.0000     0.0000     0.0000     0.0000 </r>
        <r>   -18.3250     0.0000     0.0000     0.0000     0.0000     0.0000     0.0000     0.0000     0.0000     0.0000 </r>
        <r>   -18.2290     0.0000     0.0000     0.0000     0.0000     0.0000     0.0000     0.0000     0.0000     0.0000 </r>
        <r>   -18.1330     0.0000     0.0000     0.0000     0.0000     0.0000     0.0000     0.0000     0.0000     0.0000 </r>
        <r>   -18.0370     0.0000     0.0000     0.0000     0.0000     0.0000     0.0000     0.0000     0.0000     0.0000 </r>
        <r>   -17.9410     0.0000     0.0000     0.0000     0.0000     0.0000     0.0000     0.0000     0.0000     0.0000 </r>
        <r>   -17.8450     0.0000     0.0000     0.0000     0.0000     0.0000     0.0000     0.0000     0.0000     0.0000 </r>
        <r>   -17.7490     0.0000     0.0000     0.0000     0.0000     0.0000     0.0000     0.0000     0.0000     0.0000 </r>
        <r>   -17.6530     0.0000     0.0000     0.0000     0.0000     0.0000     0.0000     0.0000     0.0000     0.0000 </r>
        <r>   -17.5570     0.0000     0.0000     0.0000     0.0000     0.0000     0.0000     0.0000     0.0000     0.0000 </r>
        <r>   -17.4610     0.0000     0.0000     0.0000     0.0000     0.0000     0.0000     0.0000     0.0000     0.0000 </r>
        <r>   -17.3650     0.0000     0.0000     0.0000     0.0000     0.0000     0.0000     0.0000     0.0000     0.0000 </r>
        <r>   -17.2690     0.0000     0.0000     0.0000     0.0000     0.0000     0.0000     0.0000     0.0000     0.0000 </r>
        <r>   -17.1730     0.0000     0.0000     0.0000     0.0000     0.0000     0.0000     0.0000     0.0000     0.0000 </r>
        <r>   -17.0770     0.0000     0.0000     0.0000     0.0000     0.0000     0.0000     0.0000     0.0000     0.0000 </r>
        <r>   -16.9810     0.0000     0.0000     0.0000     0.0000     0.0000     0.0000     0.0000     0.0000     0.0000 </r>
        <r>   -16.8850     0.0000     0.0000     0.0000     0.0000     0.0000     0.0000     0.0000     0.0000     0.0000 </r>
        <r>   -16.7890     0.0000     0.0000     0.0000     0.0000     0.0000     0.0000     0.0000     0.0000     0.0000 </r>
        <r>   -16.6931     0.0000     0.0000     0.0000     0.0000     0.0000     0.0000     0.0000     0.0000     0.0000 </r>
        <r>   -16.5971     0.0000     0.0000     0.0000     0.0000     0.0000     0.0000     0.0000     0.0000     0.0000 </r>
        <r>   -16.5011     0.0000     0.0000     0.0000     0.0000     0.0000     0.0000     0.0000     0.0000     0.0000 </r>
        <r>   -16.4051     0.0000     0.0000     0.0000     0.0000     0.0000     0.0000     0.0000     0.0000     0.0000 </r>
        <r>   -16.3091     0.0000     0.0000     0.0000     0.0000     0.0000     0.0000     0.0000     0.0000     0.0000 </r>
        <r>   -16.2131     0.0000     0.0000     0.0000     0.0000     0.0000     0.0000     0.0000     0.0000     0.0000 </r>
        <r>   -16.1171     0.0000     0.0000     0.0000     0.0000     0.0000     0.0000     0.0000     0.0000     0.0000 </r>
        <r>   -16.0211     0.0000     0.0000     0.0000     0.0000     0.0000     0.0000     0.0000     0.0000     0.0000 </r>
        <r>   -15.9251     0.0000     0.0000     0.0000     0.0000     0.0000     0.0000     0.0000     0.0000     0.0000 </r>
        <r>   -15.8291     0.0000     0.0000     0.0000     0.0000     0.0000     0.0000     0.0000     0.0000     0.0000 </r>
        <r>   -15.7331     0.0000     0.0000     0.0000     0.0000     0.0000     0.0000     0.0000     0.0000     0.0000 </r>
        <r>   -15.6371     0.0000     0.0000     0.0000     0.0000     0.0000     0.0000     0.0000     0.0000     0.0000 </r>
        <r>   -15.5411     0.0000     0.0000     0.0000     0.0000     0.0000     0.0000     0.0000     0.0000     0.0000 </r>
        <r>   -15.4451     0.0000     0.0000     0.0000     0.0000     0.0000     0.0000     0.0000     0.0000     0.0000 </r>
        <r>   -15.3491     0.0000     0.0000     0.0000     0.0000     0.0000     0.0000     0.0000     0.0000     0.0000 </r>
        <r>   -15.2531     0.0000     0.0000     0.0000     0.0000     0.0000     0.0000     0.0000     0.0000     0.0000 </r>
        <r>   -15.1571     0.0000     0.0000     0.0000     0.0000     0.0000     0.0000     0.0000     0.0000     0.0000 </r>
        <r>   -15.0612     0.0000     0.0000     0.0000     0.0000     0.0000     0.0000     0.0000     0.0000     0.0000 </r>
        <r>   -14.9652     0.0000     0.0000     0.0000     0.0000     0.0000     0.0000     0.0000     0.0000     0.0000 </r>
        <r>   -14.8692     0.0000     0.0000     0.0000     0.0000     0.0000     0.0000     0.0000     0.0000     0.0000 </r>
        <r>   -14.7732     0.0000     0.0000     0.0000     0.0000     0.0000     0.0000     0.0000     0.0000     0.0000 </r>
        <r>   -14.6772     0.0000     0.0000     0.0000     0.0000     0.0000     0.0000     0.0000     0.0000     0.0000 </r>
        <r>   -14.5812     0.0000     0.0000     0.0000     0.0000     0.0000     0.0000     0.0000     0.0000     0.0000 </r>
        <r>   -14.4852     0.0000     0.0000     0.0000     0.0000     0.0000     0.0000     0.0000     0.0000     0.0000 </r>
        <r>   -14.3892     0.0000     0.0000     0.0000     0.0000     0.0000     0.0000     0.0000     0.0000     0.0000 </r>
        <r>   -14.2932     0.0000     0.0000     0.0000     0.0000     0.0000     0.0000     0.0000     0.0000     0.0000 </r>
        <r>   -14.1972     0.0000     0.0000     0.0000     0.0000     0.0000     0.0000     0.0000     0.0000     0.0000 </r>
        <r>   -14.1012     0.0000     0.0000     0.0000     0.0000     0.0000     0.0000     0.0000     0.0000     0.0000 </r>
        <r>   -14.0052     0.0000     0.0000     0.0000     0.0000     0.0000     0.0000     0.0000     0.0000     0.0000 </r>
        <r>   -13.9092     0.0000     0.0000     0.0000     0.0000     0.0000     0.0000     0.0000     0.0000     0.0000 </r>
        <r>   -13.8132     0.0000     0.0000     0.0000     0.0000     0.0000     0.0000     0.0000     0.0000     0.0000 </r>
        <r>   -13.7172     0.0000     0.0000     0.0000     0.0000     0.0000     0.0000     0.0000     0.0000     0.0000 </r>
        <r>   -13.6212     0.0000     0.0000     0.0000     0.0000     0.0000     0.0000     0.0000     0.0000     0.0000 </r>
        <r>   -13.5252     0.0002     0.0000     0.0000     0.0000     0.0000     0.0000     0.0000     0.0000     0.0000 </r>
        <r>   -13.4293     0.0010     0.0000     0.0001     0.0000     0.0000     0.0000     0.0000     0.0000     0.0000 </r>
        <r>   -13.3333     0.0069     0.0000     0.0007     0.0001     0.0000     0.0000     0.0000     0.0000     0.0000 </r>
        <r>   -13.2373     0.0458     0.0000     0.0047     0.0006     0.0000     0.0000     0.0000     0.0000     0.0000 </r>
        <r>   -13.1413     0.2575     0.0000     0.0265     0.0033     0.0000     0.0000     0.0000     0.0000     0.0000 </r>
        <r>   -13.0453     0.7259     0.0000     0.0746     0.0092     0.0000     0.0000     0.0000     0.0000     0.0000 </r>
        <r>   -12.9493     0.5384     0.0000     0.0553     0.0068     0.0000     0.0000     0.0000     0.0000     0.0000 </r>
        <r>   -12.8533     0.1298     0.0000     0.0133     0.0017     0.0000     0.0000     0.0000     0.0000     0.0000 </r>
        <r>   -12.7573     0.0208     0.0000     0.0021     0.0003     0.0000     0.0000     0.0000     0.0000     0.0000 </r>
        <r>   -12.6613     0.0000     0.0000     0.0000     0.0000     0.0000     0.0000     0.0000     0.0000     0.0000 </r>
        <r>   -12.5653     0.0000     0.0000     0.0000     0.0000     0.0000     0.0000     0.0000     0.0000     0.0000 </r>
        <r>   -12.4693     0.0000     0.0000     0.0000     0.0000     0.0000     0.0000     0.0000     0.0000     0.0000 </r>
        <r>   -12.3733     0.0000     0.0000     0.0000     0.0000     0.0000     0.0000     0.0000     0.0000     0.0000 </r>
        <r>   -12.2773     0.0000     0.0000     0.0000     0.0000     0.0000     0.0000     0.0000     0.0000     0.0000 </r>
        <r>   -12.1813     0.0000     0.0000     0.0000     0.0000     0.0000     0.0000     0.0000     0.0000     0.0000 </r>
        <r>   -12.0853     0.0000     0.0000     0.0000     0.0000     0.0000     0.0000     0.0000     0.0000     0.0000 </r>
        <r>   -11.9893     0.0000     0.0000     0.0000     0.0000     0.0000     0.0000     0.0000     0.0000     0.0000 </r>
        <r>   -11.8933     0.0000     0.0000     0.0000     0.0000     0.0000     0.0000     0.0000     0.0000     0.0000 </r>
        <r>   -11.7974     0.0000     0.0000     0.0000     0.0000     0.0000     0.0000     0.0000     0.0000     0.0000 </r>
        <r>   -11.7014     0.0000     0.0000     0.0000     0.0000     0.0000     0.0000     0.0000     0.0000     0.0000 </r>
        <r>   -11.6054     0.0000     0.0000     0.0000     0.0000     0.0000     0.0000     0.0000     0.0000     0.0000 </r>
        <r>   -11.5094     0.0000     0.0000     0.0000     0.0000     0.0000     0.0000     0.0000     0.0000     0.0000 </r>
        <r>   -11.4134     0.0000     0.0000     0.0000     0.0000     0.0000     0.0000     0.0000     0.0000     0.0000 </r>
        <r>   -11.3174     0.0000     0.0000     0.0000     0.0000     0.0000     0.0000     0.0000     0.0000     0.0000 </r>
        <r>   -11.2214     0.0000     0.0000     0.0000     0.0000     0.0000     0.0000     0.0000     0.0000     0.0000 </r>
        <r>   -11.1254     0.0000     0.0000     0.0000     0.0000     0.0000     0.0000     0.0000     0.0000     0.0000 </r>
        <r>   -11.0294     0.0000     0.0000     0.0000     0.0000     0.0000     0.0000     0.0000     0.0000     0.0000 </r>
        <r>   -10.9334     0.0000     0.0000     0.0000     0.0000     0.0000     0.0000     0.0000     0.0000     0.0000 </r>
        <r>   -10.8374     0.0000     0.0000     0.0000     0.0000     0.0000     0.0000     0.0000     0.0000     0.0000 </r>
        <r>   -10.7414     0.0000     0.0000     0.0000     0.0000     0.0000     0.0000     0.0000     0.0000     0.0000 </r>
        <r>   -10.6454     0.0000     0.0000     0.0000     0.0000     0.0000     0.0000     0.0000     0.0000     0.0000 </r>
        <r>   -10.5494     0.0000     0.0000     0.0000     0.0000     0.0000     0.0000     0.0000     0.0000     0.0000 </r>
        <r>   -10.4534     0.0000     0.0000     0.0000     0.0000     0.0000     0.0000     0.0000     0.0000     0.0000 </r>
        <r>   -10.3574     0.0000     0.0000     0.0000     0.0000     0.0000     0.0000     0.0000     0.0000     0.0000 </r>
        <r>   -10.2614     0.0000     0.0000     0.0000     0.0000     0.0000     0.0000     0.0000     0.0000     0.0000 </r>
        <r>   -10.1655     0.0000     0.0000     0.0000     0.0000     0.0000     0.0000     0.0000     0.0000     0.0000 </r>
        <r>   -10.0695     0.0000     0.0000     0.0000     0.0000     0.0000     0.0000     0.0000     0.0000     0.0000 </r>
        <r>    -9.9735     0.0000     0.0000     0.0000     0.0000     0.0000     0.0000     0.0000     0.0000     0.0000 </r>
        <r>    -9.8775     0.0000     0.0000     0.0000     0.0000     0.0000     0.0000     0.0000     0.0000     0.0000 </r>
        <r>    -9.7815     0.0000     0.0000     0.0000     0.0000     0.0000     0.0000     0.0000     0.0000     0.0000 </r>
        <r>    -9.6855     0.0001     0.0000     0.0000     0.0000     0.0000     0.0000     0.0000     0.0000     0.0000 </r>
        <r>    -9.5895     0.0004     0.0000     0.0000     0.0000     0.0000     0.0000     0.0000     0.0000     0.0000 </r>
        <r>    -9.4935     0.0026     0.0000     0.0001     0.0003     0.0000     0.0000     0.0000     0.0000     0.0000 </r>
        <r>    -9.3975     0.0172     0.0000     0.0009     0.0019     0.0000     0.0000     0.0000     0.0000     0.0000 </r>
        <r>    -9.3015     0.0922     0.0001     0.0050     0.0103     0.0000     0.0000     0.0000     0.0000     0.0000 </r>
        <r>    -9.2055     0.2262     0.0003     0.0122     0.0253     0.0000     0.0000     0.0000     0.0000     0.0000 </r>
        <r>    -9.1095     0.1417     0.0002     0.0076     0.0159     0.0000     0.0000     0.0000     0.0000     0.0000 </r>
        <r>    -9.0135     0.0314     0.0000     0.0017     0.0035     0.0000     0.0000     0.0000     0.0000     0.0000 </r>
        <r>    -8.9175     0.0050     0.0000     0.0003     0.0006     0.0000     0.0000     0.0000     0.0000     0.0000 </r>
        <r>    -8.8215     0.0000     0.0000     0.0000     0.0000     0.0000     0.0000     0.0000     0.0000     0.0000 </r>
        <r>    -8.7255     0.0000     0.0000     0.0000     0.0000     0.0000     0.0000     0.0000     0.0000     0.0000 </r>
        <r>    -8.6295     0.0000     0.0000     0.0000     0.0000     0.0000     0.0000     0.0000     0.0000     0.0000 </r>
        <r>    -8.5335     0.0000     0.0000     0.0000     0.0000     0.0000     0.0000     0.0000     0.0000     0.0000 </r>
[...]
        <r>    -4.9818     0.0000     0.0000     0.0000     0.0000     0.0000     0.0000     0.0000     0.0000     0.0000 </r>
        <r>    -4.8858     0.0000     0.0000     0.0000     0.0000     0.0000     0.0000     0.0000     0.0000     0.0000 </r>
        <r>    -4.7898     0.0000     0.0000     0.0000     0.0000     0.0000     0.0000     0.0000     0.0000     0.0000 </r>
        <r>    -4.6938     0.0000     0.0000     0.0000     0.0000     0.0000     0.0000     0.0000     0.0000     0.0000 </r>
        <r>    -4.5978     0.0000     0.0000     0.0000     0.0000     0.0000     0.0000     0.0000     0.0000     0.0000 </r>
        <r>    -4.5018     0.0000     0.0000     0.0000     0.0000     0.0000     0.0000     0.0000     0.0000     0.0000 </r>
        <r>    -4.4058     0.0000     0.0000     0.0000     0.0000     0.0000     0.0000     0.0000     0.0000     0.0000 </r>
        <r>    -4.3098     0.0000     0.0000     0.0000     0.0000     0.0000     0.0000     0.0000     0.0000     0.0000 </r>
        <r>    -4.2138     0.0000     0.0000     0.0000     0.0000     0.0000     0.0000     0.0000     0.0000     0.0000 </r>
        <r>    -4.1178     0.0000     0.0000     0.0000     0.0000     0.0000     0.0000     0.0000     0.0000     0.0000 </r>
        <r>    -4.0218     0.0000     0.0000     0.0000     0.0000     0.0000     0.0000     0.0000     0.0000     0.0000 </r>
        <r>    -3.9258     0.0000     0.0000     0.0000     0.0000     0.0000     0.0000     0.0000     0.0000     0.0000 </r>
        <r>    -3.8298     0.0000     0.0000     0.0000     0.0000     0.0000     0.0000     0.0000     0.0000     0.0000 </r>
        <r>    -3.7338     0.0000     0.0000     0.0000     0.0000     0.0000     0.0000     0.0000     0.0000     0.0000 </r>
        <r>    -3.6378     0.0000     0.0000     0.0000     0.0000     0.0000     0.0000     0.0000     0.0000     0.0000 </r>
        <r>    -3.5419     0.0000     0.0000     0.0000     0.0000     0.0000     0.0000     0.0000     0.0000     0.0000 </r>
        <r>    -3.4459     0.0000     0.0000     0.0000     0.0000     0.0000     0.0000     0.0000     0.0000     0.0000 </r>
        <r>    -3.3499     0.0000     0.0000     0.0000     0.0000     0.0000     0.0000     0.0000     0.0000     0.0000 </r>
        <r>    -3.2539     0.0000     0.0000     0.0000     0.0000     0.0000     0.0000     0.0000     0.0000     0.0000 </r>
        <r>    -3.1579     0.0000     0.0000     0.0000     0.0000     0.0000     0.0000     0.0000     0.0000     0.0000 </r>
        <r>    -3.0619     0.0000     0.0000     0.0000     0.0000     0.0000     0.0000     0.0000     0.0000     0.0000 </r>
        <r>    -2.9659     0.0000     0.0000     0.0000     0.0000     0.0000     0.0000     0.0000     0.0000     0.0000 </r>
        <r>    -2.8699     0.0000     0.0000     0.0000     0.0000     0.0000     0.0000     0.0000     0.0000     0.0000 </r>
        <r>    -2.7739     0.0000     0.0000     0.0000     0.0000     0.0000     0.0000     0.0000     0.0000     0.0000 </r>
        <r>    -2.6779     0.0000     0.0000     0.0000     0.0000     0.0000     0.0000     0.0000     0.0000     0.0000 </r>
        <r>    -2.5819     0.0000     0.0000     0.0000     0.0000     0.0000     0.0000     0.0000     0.0000     0.0000 </r>
        <r>    -2.4859     0.0000     0.0000     0.0000     0.0000     0.0000     0.0000     0.0000     0.0000     0.0000 </r>
        <r>    -2.3899     0.0000     0.0000     0.0000     0.0000     0.0000     0.0000     0.0000     0.0000     0.0000 </r>
        <r>    -2.2939     0.0000     0.0000     0.0000     0.0000     0.0000     0.0000     0.0000     0.0000     0.0000 </r>
        <r>    -2.1979     0.0000     0.0000     0.0000     0.0000     0.0000     0.0000     0.0000     0.0000     0.0000 </r>
        <r>    -2.1019     0.0000     0.0000     0.0000     0.0000     0.0000     0.0000     0.0000     0.0000     0.0000 </r>
        <r>    -2.0059     0.0000     0.0000     0.0000     0.0000     0.0000     0.0000     0.0000     0.0000     0.0000 </r>
        <r>    -1.9100     0.0000     0.0000     0.0000     0.0000     0.0000     0.0000     0.0000     0.0000     0.0000 </r>
        <r>    -1.8140     0.0000     0.0000     0.0000     0.0000     0.0000     0.0000     0.0000     0.0000     0.0000 </r>
        <r>    -1.7180     0.0000     0.0000     0.0000     0.0000     0.0000     0.0000     0.0000     0.0000     0.0000 </r>
        <r>    -1.6220     0.0000     0.0000     0.0000     0.0000     0.0000     0.0000     0.0000     0.0000     0.0000 </r>
        <r>    -1.5260     0.0000     0.0000     0.0000     0.0000     0.0000     0.0000     0.0000     0.0000     0.0000 </r>
        <r>    -1.4300     0.0000     0.0000     0.0000     0.0000     0.0000     0.0000     0.0000     0.0000     0.0000 </r>
        <r>    -1.3340     0.0002     0.0000     0.0001     0.0002     0.0000     0.0000     0.0000     0.0000     0.0000 </r>
        <r>    -1.2380     0.0016     0.0000     0.0008     0.0013     0.0000     0.0000     0.0000     0.0000     0.0000 </r>
        <r>    -1.1420     0.0107     0.0000     0.0051     0.0087     0.0000     0.0000     0.0000     0.0000     0.0000 </r>
        <r>    -1.0460     0.0553     0.0002     0.0261     0.0450     0.0000     0.0000     0.0000     0.0000     0.0000 </r>
        <r>    -0.9500     0.1211     0.0004     0.0572     0.0984     0.0000     0.0000     0.0000     0.0000     0.0000 </r>
        <r>    -0.8540     0.0668     0.0002     0.0315     0.0543     0.0000     0.0000     0.0000     0.0000     0.0000 </r>
        <r>    -0.7580     0.0140     0.0000     0.0066     0.0114     0.0000     0.0000     0.0000     0.0000     0.0000 </r>
        <r>    -0.6620     0.0022     0.0000     0.0010     0.0018     0.0000     0.0000     0.0000     0.0000     0.0000 </r>
        <r>    -0.5660     0.0000     0.0000     0.0000     0.0000     0.0000     0.0000     0.0000     0.0000     0.0000 </r>
        <r>    -0.4700     0.0000     0.0000     0.0000     0.0000     0.0000     0.0000     0.0000     0.0000     0.0000 </r>
        <r>    -0.3740     0.0000     0.0000     0.0000     0.0000     0.0000     0.0000     0.0000     0.0000     0.0000 </r>
        <r>    -0.2780     0.0000     0.0000     0.0000     0.0000     0.0000     0.0000     0.0000     0.0000     0.0000 </r>
        <r>    -0.1821     0.0001     0.0000     0.0001     0.0002     0.0000     0.0000     0.0000     0.0000     0.0000 </r>
        <r>    -0.0861     0.0008     0.0000     0.0004     0.0015     0.0000     0.0000     0.0000     0.0000     0.0000 </r>
        <r>     0.0099     0.0030     0.0000     0.0026     0.0058     0.0000     0.0000     0.0000     0.0000     0.0000 </r>
        <r>     0.1059     0.0039     0.0001     0.0095     0.0085     0.0000     0.0000     0.0000     0.0000     0.0000 </r>
        <r>     0.2019     0.0031     0.0001     0.0131     0.0070     0.0000     0.0000     0.0000     0.0000     0.0000 </r>
        <r>     0.2979     0.0083     0.0001     0.0170     0.0144     0.0000     0.0000     0.0000     0.0000     0.0000 </r>
        <r>     0.3939     0.0142     0.0002     0.0406     0.0287     0.0000     0.0000     0.0000     0.0000     0.0000 </r>
        <r>     0.4899     0.0069     0.0003     0.0485     0.0228     0.0000     0.0000     0.0000     0.0000     0.0000 </r>
        <r>     0.5859     0.0041     0.0004     0.0218     0.0130     0.0000     0.0000     0.0000     0.0000     0.0000 </r>
        <r>     0.6819     0.0103     0.0018     0.0189     0.0274     0.0000     0.0000     0.0000     0.0000     0.0000 </r>
        <r>     0.7779     0.0134     0.0102     0.0333     0.0626     0.0000     0.0000     0.0000     0.0000     0.0000 </r>
        <r>     0.8739     0.0085     0.0419     0.0327     0.0673     0.0000     0.0000     0.0000     0.0000     0.0000 </r>
        <r>     0.9699     0.0026     0.0669     0.0109     0.0235     0.0000     0.0000     0.0000     0.0000     0.0000 </r>
        <r>     1.0659     0.0005     0.0281     0.0019     0.0045     0.0000     0.0000     0.0000     0.0000     0.0000 </r>
        <r>     1.1619     0.0001     0.0053     0.0003     0.0007     0.0000     0.0000     0.0000     0.0000     0.0000 </r>
        <r>     1.2579     0.0000     0.0008     0.0000     0.0000     0.0000     0.0000     0.0000     0.0000     0.0000 </r>
        <r>     1.3539     0.0000     0.0000     0.0000     0.0000     0.0000     0.0000     0.0000     0.0000     0.0000 </r>
        <r>     1.4498     0.0000     0.0000     0.0000     0.0000     0.0000     0.0000     0.0000     0.0000     0.0000 </r>
        <r>     1.5458     0.0000     0.0000     0.0000     0.0000     0.0000     0.0000     0.0000     0.0000     0.0000 </r>
        <r>     1.6418     0.0000     0.0000     0.0000     0.0000     0.0000     0.0000     0.0000     0.0000     0.0000 </r>
        <r>     1.7378     0.0000     0.0000     0.0000     0.0000     0.0000     0.0000     0.0000     0.0000     0.0000 </r>
        <r>     1.8338     0.0000     0.0000     0.0000     0.0000     0.0000     0.0000     0.0000     0.0000     0.0000 </r>
        <r>     1.9298     0.0000     0.0000     0.0000     0.0000     0.0000     0.0000     0.0000     0.0000     0.0000 </r>
        <r>     2.0258     0.0000     0.0000     0.0000     0.0000     0.0000     0.0000     0.0000     0.0000     0.0000 </r>
        <r>     2.1218     0.0000     0.0000     0.0000     0.0000     0.0000     0.0000     0.0000     0.0000     0.0000 </r>
        <r>     2.2178     0.0000     0.0000     0.0000     0.0000     0.0000     0.0000     0.0000     0.0000     0.0000 </r>
       </set>
      </set>
     </set>
    </array>
   </partial>
  </dos>
  <projected>
   <eigenvalues>
    <array>
     <dimension dim="1">band</dimension>
     <dimension dim="2">kpoint</dimension>
     <dimension dim="3">spin</dimension>
     <field>eigene</field>
     <field>occ</field>
     <set>
      <set comment="spin 1">
       <set comment="kpoint 1">
        <r>  -25.2714    1.0000 </r>
        <r>  -13.0655    1.0000 </r>
        <r>   -9.2374    1.0000 </r>
        <r>   -7.1712    1.0000 </r>
        <r>   -0.9912    0.0000 </r>
        <r>    0.0215    0.0000 </r>
        <r>    0.1180    0.0000 </r>
        <r>    0.3371    0.0000 </r>
        <r>    0.4260    0.0000 </r>
        <r>    0.6820    0.0000 </r>
        <r>    0.7870    0.0000 </r>
        <r>    0.9088    0.0000 </r>
       </set>
      </set>
      <set comment="spin 2">
       <set comment="kpoint 1">
        <r>  -25.2711    1.0000 </r>
        <r>  -13.0653    1.0000 </r>
        <r>   -9.2371    1.0000 </r>
        <r>   -7.1707    1.0000 </r>
        <r>   -0.9910    0.0000 </r>
        <r>    0.0214    0.0000 </r>
        <r>    0.1182    0.0000 </r>
        <r>    0.3364    0.0000 </r>
        <r>    0.4248    0.0000 </r>
        <r>    0.6805    0.0000 </r>
        <r>    0.7953    0.0000 </r>
        <r>    0.9085    0.0000 </r>
       </set>
      </set>
     </set>
    </array>
   </eigenvalues>
   <array>
    <dimension dim="1">ion</dimension>
    <dimension dim="2">band</dimension>
    <dimension dim="3">kpoint</dimension>
    <dimension dim="4">spin</dimension>
    <field>    s</field>
    <field>   py</field>
    <field>   pz</field>
    <field>   px</field>
    <field>  dxy</field>
    <field>  dyz</field>
    <field>  dz2</field>
    <field>  dxz</field>
    <field>x2-y2</field>
    <set>
     <set comment="spin1">
      <set comment="kpoint 1">
       <set comment="band 1">
        <r>  0.0974  0.0000  0.0206  0.0001  0.0000  0.0000  0.0000  0.0000  0.0000 </r>
        <r>  0.0972  0.0002  0.0026  0.0179  0.0000  0.0000  0.0000  0.0000  0.0000 </r>
        <r>  0.7026  0.0001  0.0136  0.0252  0.0000  0.0000  0.0000  0.0000  0.0000 </r>
       </set>
       <set comment="band 2">
        <r>  0.1661  0.0000  0.0171  0.0021  0.0000  0.0000  0.0000  0.0000  0.0000 </r>
        <r>  0.1660  0.0001  0.0000  0.0191  0.0000  0.0000  0.0000  0.0000  0.0000 </r>
        <r>  0.0000  0.0028  0.3532  0.1865  0.0000  0.0000  0.0000  0.0000  0.0000 </r>
       </set>
       <set comment="band 3">
        <r>  0.0497  0.0001  0.0027  0.0056  0.0000  0.0000  0.0000  0.0000  0.0000 </r>
        <r>  0.0497  0.0000  0.0076  0.0007  0.0000  0.0000  0.0000  0.0000  0.0000 </r>
        <r>  0.0805  0.0013  0.1922  0.3592  0.0000  0.0000  0.0000  0.0000  0.0000 </r>
       </set>
       <set comment="band 4">
        <r>  0.0000  0.0119  0.0000  0.0001  0.0000  0.0000  0.0000  0.0000  0.0000 </r>
        <r>  0.0000  0.0118  0.0000  0.0001  0.0000  0.0000  0.0000  0.0000  0.0000 </r>
        <r>  0.0000  0.6617  0.0006  0.0045  0.0000  0.0000  0.0000  0.0000  0.0000 </r>
       </set>
       <set comment="band 5">
        <r>  0.0045  0.0000  0.0113  0.0001  0.0000  0.0000  0.0000  0.0000  0.0000 </r>
        <r>  0.0046  0.0001  0.0019  0.0089  0.0000  0.0000  0.0000  0.0000  0.0000 </r>
        <r>  0.0269  0.0001  0.0129  0.0221  0.0000  0.0000  0.0000  0.0000  0.0000 </r>
       </set>
       <set comment="band 6">
        <r>  0.0001  0.0000  0.0000  0.0000  0.0000  0.0000  0.0000  0.0000  0.0000 </r>
        <r>  0.0003  0.0000  0.0001  0.0008  0.0000  0.0000  0.0000  0.0000  0.0000 </r>
        <r>  0.0008  0.0000  0.0002  0.0017  0.0000  0.0000  0.0000  0.0000  0.0000 </r>
       </set>
       <set comment="band 7">
        <r>  0.0000  0.0000  0.0005  0.0000  0.0000  0.0000  0.0000  0.0000  0.0000 </r>
        <r>  0.0001  0.0000  0.0000  0.0005  0.0000  0.0000  0.0000  0.0000  0.0000 </r>
        <r>  0.0001  0.0000  0.0033  0.0008  0.0000  0.0000  0.0000  0.0000  0.0000 </r>
       </set>
       <set comment="band 8">
        <r>  0.0009  0.0000  0.0022  0.0000  0.0000  0.0000  0.0000  0.0000  0.0000 </r>
        <r>  0.0008  0.0000  0.0003  0.0012  0.0000  0.0000  0.0000  0.0000  0.0000 </r>
        <r>  0.0030  0.0000  0.0036  0.0038  0.0000  0.0000  0.0000  0.0000  0.0000 </r>
       </set>
       <set comment="band 9">
        <r>  0.0002  0.0000  0.0023  0.0001  0.0000  0.0000  0.0000  0.0000  0.0000 </r>
        <r>  0.0007  0.0000  0.0001  0.0027  0.0000  0.0000  0.0000  0.0000  0.0000 </r>
        <r>  0.0002  0.0001  0.0128  0.0051  0.0000  0.0000  0.0000  0.0000  0.0000 </r>
       </set>
       <set comment="band 10">
        <r>  0.0014  0.0000  0.0021  0.0000  0.0000  0.0000  0.0000  0.0000  0.0000 </r>
        <r>  0.0003  0.0000  0.0003  0.0006  0.0000  0.0000  0.0000  0.0000  0.0000 </r>
        <r>  0.0019  0.0000  0.0039  0.0028  0.0000  0.0000  0.0000  0.0000  0.0000 </r>
       </set>
       <set comment="band 11">
        <r>  0.0018  0.0000  0.0034  0.0000  0.0000  0.0000  0.0000  0.0000  0.0000 </r>
        <r>  0.0003  0.0000  0.0000  0.0041  0.0000  0.0000  0.0000  0.0000  0.0000 </r>
        <r>  0.0010  0.0004  0.0101  0.0172  0.0000  0.0000  0.0000  0.0000  0.0000 </r>
       </set>
       <set comment="band 12">
        <r>  0.0000  0.0000  0.0000  0.0000  0.0000  0.0000  0.0000  0.0000  0.0000 </r>
        <r>  0.0000  0.0000  0.0000  0.0000  0.0000  0.0000  0.0000  0.0000  0.0000 </r>
        <r>  0.0000  0.0154  0.0000  0.0003  0.0000  0.0000  0.0000  0.0000  0.0000 </r>
       </set>
      </set>
     </set>
     <set comment="spin2">
      <set comment="kpoint 1">
       <set comment="band 1">
        <r>  0.0974  0.0000  0.0206  0.0001  0.0000  0.0000  0.0000  0.0000  0.0000 </r>
        <r>  0.0972  0.0002  0.0026  0.0179  0.0000  0.0000  0.0000  0.0000  0.0000 </r>
        <r>  0.7026  0.0001  0.0136  0.0252  0.0000  0.0000  0.0000  0.0000  0.0000 </r>
       </set>
       <set comment="band 2">
        <r>  0.1662  0.0000  0.0171  0.0021  0.0000  0.0000  0.0000  0.0000  0.0000 </r>
        <r>  0.1661  0.0001  0.0000  0.0191  0.0000  0.0000  0.0000  0.0000  0.0000 </r>
        <r>  0.0000  0.0028  0.3531  0.1865  0.0000  0.0000  0.0000  0.0000  0.0000 </r>
       </set>
       <set comment="band 3">
        <r>  0.0497  0.0001  0.0027  0.0056  0.0000  0.0000  0.0000  0.0000  0.0000 </r>
        <r>  0.0497  0.0000  0.0076  0.0007  0.0000  0.0000  0.0000  0.0000  0.0000 </r>
        <r>  0.0805  0.0013  0.1922  0.3591  0.0000  0.0000  0.0000  0.0000  0.0000 </r>
       </set>
       <set comment="band 4">
        <r>  0.0000  0.0119  0.0000  0.0001  0.0000  0.0000  0.0000  0.0000  0.0000 </r>
        <r>  0.0000  0.0118  0.0000  0.0001  0.0000  0.0000  0.0000  0.0000  0.0000 </r>
        <r>  0.0000  0.6617  0.0006  0.0045  0.0000  0.0000  0.0000  0.0000  0.0000 </r>
       </set>
       <set comment="band 5">
        <r>  0.0043  0.0000  0.0109  0.0001  0.0000  0.0000  0.0000  0.0000  0.0000 </r>
        <r>  0.0043  0.0001  0.0018  0.0087  0.0000  0.0000  0.0000  0.0000  0.0000 </r>
        <r>  0.0261  0.0001  0.0123  0.0213  0.0000  0.0000  0.0000  0.0000  0.0000 </r>
       </set>
       <set comment="band 6">
        <r>  0.0001  0.0000  0.0000  0.0000  0.0000  0.0000  0.0000  0.0000  0.0000 </r>
        <r>  0.0003  0.0000  0.0001  0.0007  0.0000  0.0000  0.0000  0.0000  0.0000 </r>
        <r>  0.0008  0.0000  0.0001  0.0015  0.0000  0.0000  0.0000  0.0000  0.0000 </r>
       </set>
       <set comment="band 7">
        <r>  0.0000  0.0000  0.0004  0.0000  0.0000  0.0000  0.0000  0.0000  0.0000 </r>
        <r>  0.0001  0.0000  0.0000  0.0004  0.0000  0.0000  0.0000  0.0000  0.0000 </r>
        <r>  0.0001  0.0000  0.0025  0.0005  0.0000  0.0000  0.0000  0.0000  0.0000 </r>
       </set>
       <set comment="band 8">
        <r>  0.0008  0.0000  0.0019  0.0000  0.0000  0.0000  0.0000  0.0000  0.0000 </r>
        <r>  0.0008  0.0000  0.0003  0.0014  0.0000  0.0000  0.0000  0.0000  0.0000 </r>
        <r>  0.0030  0.0000  0.0029  0.0044  0.0000  0.0000  0.0000  0.0000  0.0000 </r>
       </set>
       <set comment="band 9">
        <r>  0.0001  0.0000  0.0018  0.0000  0.0000  0.0000  0.0000  0.0000  0.0000 </r>
        <r>  0.0002  0.0000  0.0000  0.0016  0.0000  0.0000  0.0000  0.0000  0.0000 </r>
        <r>  0.0000  0.0000  0.0092  0.0028  0.0000  0.0000  0.0000  0.0000  0.0000 </r>
       </set>
       <set comment="band 10">
        <r>  0.0012  0.0000  0.0017  0.0000  0.0000  0.0000  0.0000  0.0000  0.0000 </r>
        <r>  0.0005  0.0000  0.0003  0.0010  0.0000  0.0000  0.0000  0.0000  0.0000 </r>
        <r>  0.0023  0.0000  0.0025  0.0036  0.0000  0.0000  0.0000  0.0000  0.0000 </r>
       </set>
       <set comment="band 11">
        <r>  0.0012  0.0000  0.0028  0.0000  0.0000  0.0000  0.0000  0.0000  0.0000 </r>
        <r>  0.0000  0.0000  0.0000  0.0029  0.0000  0.0000  0.0000  0.0000  0.0000 </r>
        <r>  0.0014  0.0004  0.0069  0.0145  0.0000  0.0000  0.0000  0.0000  0.0000 </r>
       </set>
       <set comment="band 12">
        <r>  0.0000  0.0000  0.0000  0.0000  0.0000  0.0000  0.0000  0.0000  0.0000 </r>
        <r>  0.0000  0.0000  0.0000  0.0000  0.0000  0.0000  0.0000  0.0000  0.0000 </r>
        <r>  0.0000  0.0145  0.0000  0.0003  0.0000  0.0000  0.0000  0.0000  0.0000 </r>
       </set>
      </set>
     </set>
    </set>
   </array>
  </projected>
 </calculation>
 <structure name="finalpos" >
  <crystal>
   <varray name="basis" >
    <v>      11.10380000       0.00000000       0.00000000 </v>
    <v>       0.00000000      11.20020000       0.00000000 </v>
    <v>       0.00000000       0.00000000      32.43460000 </v>
   </varray>
   <i name="volume">   4033.72191804 </i>
   <varray name="rec_basis" >
    <v>       0.09005926       0.00000000       0.00000000 </v>
    <v>       0.00000000       0.08928412       0.00000000 </v>
    <v>       0.00000000       0.00000000       0.03083127 </v>
   </varray>
  </crystal>
  <varray name="positions" >
   <v>       0.48239407       0.63354183       0.49910589 </v>
   <v>       0.56353235       0.62361045       0.53732066 </v>
   <v>       0.47974358       0.63115772       0.52904345 </v>
  </varray>
 </structure>
</modeling>
