 running    1 mpi-ranks, with    1 threads/rank, on    1 nodes
 distrk:  each k-point on    1 cores,    1 groups
 distr:  one band on    1 cores,    1 groups
 OpenACC runtime initialized ...    1 GPUs detected
 vasp.6.4.2 20Jul23 (build Aug  7 2024 10:52:41) complex                         
 POSCAR found type information on POSCAR O B C Mg
 POSCAR found :  4 types and     684 ions
 LDA part: xc-table for Pade appr. of Perdew
 POSCAR, INCAR and KPOINTS ok, starting setup
 FFT: planning ... GRIDC
 FFT: planning ... GRID_SOFT
 FFT: planning ... GRID
 WAVECAR not read
 WARNING: random wavefunctions but no delay for mixing, default for NELMDL
 entering main loop
       N       E                     dE             d eps       ncg     rms          rms(c)
DAV:   1     0.238622949224E+05    0.23862E+05   -0.11051E+06  4070   0.107E+03
DAV:   2    -0.102497731750E+04   -0.24887E+05   -0.23875E+05  5124   0.294E+02
DAV:   3    -0.538353963826E+04   -0.43586E+04   -0.42122E+04  4156   0.129E+02
DAV:   4    -0.552197383445E+04   -0.13843E+03   -0.13589E+03  4188   0.257E+01
DAV:   5    -0.552744363644E+04   -0.54698E+01   -0.54306E+01  4788   0.440E+00    0.135E+02
DAV:   6    -0.496014174490E+04    0.56730E+03   -0.14819E+03  4140   0.265E+01    0.646E+01
DAV:   7    -0.491620846580E+04    0.43933E+02   -0.10473E+02  4588   0.103E+01    0.385E+01
DAV:   8    -0.490855547537E+04    0.76530E+01   -0.90333E+01  4732   0.115E+01    0.191E+01
DAV:   9    -0.490021248837E+04    0.83430E+01   -0.40480E+01  4364   0.629E+00    0.117E+01
DAV:  10    -0.489707027047E+04    0.31422E+01   -0.91241E+00  4308   0.360E+00    0.806E+00
DAV:  11    -0.489677968943E+04    0.29058E+00   -0.83853E+00  4628   0.266E+00    0.588E+00
DAV:  12    -0.489629918253E+04    0.48051E+00   -0.55751E+00  4468   0.200E+00    0.531E+00
DAV:  13    -0.489617355681E+04    0.12563E+00   -0.41497E+00  4516   0.148E+00    0.457E+00
DAV:  14    -0.489604729938E+04    0.12626E+00   -0.25405E+00  4276   0.972E-01    0.315E+00
DAV:  15    -0.489597481015E+04    0.72489E-01   -0.12363E+00  4476   0.696E-01    0.257E+00
DAV:  16    -0.489597333100E+04    0.14792E-02   -0.61346E-01  4372   0.497E-01    0.205E+00
DAV:  17    -0.489597401320E+04   -0.68221E-03   -0.34410E-01  4340   0.379E-01    0.159E+00
DAV:  18    -0.489599236515E+04   -0.18352E-01   -0.32666E-01  4228   0.335E-01    0.141E+00
DAV:  19    -0.489598940329E+04    0.29619E-02   -0.20030E-01  4132   0.262E-01    0.103E+00
DAV:  20    -0.489599808895E+04   -0.86857E-02   -0.51717E-02  4156   0.176E-01    0.572E-01
DAV:  21    -0.489602237992E+04   -0.24291E-01   -0.59734E-02  4004   0.134E-01    0.468E-01
DAV:  22    -0.489603999817E+04   -0.17618E-01   -0.43553E-02  4532   0.136E-01    0.606E-01
DAV:  23    -0.489605883530E+04   -0.18837E-01   -0.60195E-02  4340   0.131E-01    0.493E-01
DAV:  24    -0.489607308487E+04   -0.14250E-01   -0.26698E-02  4340   0.991E-02    0.242E-01
DAV:  25    -0.489608722395E+04   -0.14139E-01   -0.86392E-03  4164   0.633E-02    0.171E-01
DAV:  26    -0.489609582143E+04   -0.85975E-02   -0.60038E-03  4332   0.455E-02    0.124E-01
DAV:  27    -0.489610522868E+04   -0.94072E-02   -0.19071E-03  4196   0.302E-02    0.781E-02
DAV:  28    -0.489611297455E+04   -0.77459E-02   -0.12421E-03  4316   0.268E-02    0.783E-02
DAV:  29    -0.489611655191E+04   -0.35774E-02   -0.74399E-04  4180   0.184E-02    0.439E-02
DAV:  30    -0.489611892037E+04   -0.23685E-02   -0.38257E-04  4116   0.113E-02    0.255E-02
DAV:  31    -0.489612031068E+04   -0.13903E-02   -0.19992E-04  3716   0.786E-03    0.181E-02
DAV:  32    -0.489612089886E+04   -0.58818E-03   -0.14464E-04  2948   0.628E-03    0.274E-02
DAV:  33    -0.489612120607E+04   -0.30720E-03   -0.11031E-04  2812   0.619E-03    0.203E-02
DAV:  34    -0.489612137627E+04   -0.17021E-03   -0.38291E-05  2796   0.377E-03    0.597E-03
DAV:  35    -0.489612147476E+04   -0.98490E-04   -0.19691E-05  2740   0.237E-03    0.577E-03
DAV:  36    -0.489612151847E+04   -0.43703E-04   -0.10774E-05  2716   0.171E-03    0.444E-03
DAV:  37    -0.489612153807E+04   -0.19606E-04   -0.55853E-06  2684   0.128E-03    0.235E-03
DAV:  38    -0.489612154533E+04   -0.72521E-05   -0.20527E-06  2596   0.845E-04
   1 F= -.49456982E+04 E0= -.49454177E+04  d E =-.494570E+04
 curvature:   0.00 expect dE= 0.000E+00 dE for cont linesearch  0.000E+00
 trial: gam= 0.00000 g(F)=  0.502E+02 g(S)=  0.000E+00 ort = 0.000E+00 (trialstep = 0.100E+01)
 search vector abs. value=  0.502E+02
 bond charge predicted
       N       E                     dE             d eps       ncg     rms          rms(c)
DAV:   1    -0.482643651380E+04    0.69685E+02   -0.66856E+03  3790   0.585E+01    0.437E+01
DAV:   2    -0.486718334692E+04   -0.40747E+02   -0.45410E+02  4468   0.129E+01    0.232E+01
DAV:   3    -0.485938187033E+04    0.78015E+01   -0.31510E+01  4476   0.544E+00    0.160E+01
DAV:   4    -0.485933698857E+04    0.44882E-01   -0.11312E+01  4324   0.352E+00    0.132E+01
DAV:   5    -0.485774724825E+04    0.15897E+01   -0.12768E+01  4740   0.310E+00    0.870E+00
DAV:   6    -0.485685014032E+04    0.89711E+00   -0.31796E+00  4300   0.146E+00    0.522E+00
DAV:   7    -0.485697564378E+04   -0.12550E+00   -0.31855E+00  4756   0.117E+00    0.558E+00
DAV:   8    -0.485666093449E+04    0.31471E+00   -0.36562E+00  4756   0.999E-01    0.382E+00
DAV:   9    -0.485656771158E+04    0.93223E-01   -0.10405E+00  4676   0.730E-01    0.259E+00
DAV:  10    -0.485655550564E+04    0.12206E-01   -0.83125E-01  4444   0.499E-01    0.190E+00
DAV:  11    -0.485653756535E+04    0.17940E-01   -0.43649E-01  4468   0.350E-01    0.152E+00
DAV:  12    -0.485652471650E+04    0.12849E-01   -0.27140E-01  4604   0.261E-01    0.984E-01
DAV:  13    -0.485652100900E+04    0.37075E-02   -0.10602E-01  4356   0.181E-01    0.655E-01
DAV:  14    -0.485652058678E+04    0.42222E-03   -0.30419E-02  4220   0.113E-01    0.432E-01
DAV:  15    -0.485652202005E+04   -0.14333E-02   -0.12400E-02  4484   0.842E-02    0.404E-01
DAV:  16    -0.485652236801E+04   -0.34796E-03   -0.49565E-03  4316   0.625E-02    0.141E-01
DAV:  17    -0.485652397311E+04   -0.16051E-02   -0.20995E-03  4164   0.366E-02    0.109E-01
DAV:  18    -0.485652521617E+04   -0.12431E-02   -0.16728E-03  4372   0.286E-02    0.124E-01
DAV:  19    -0.485652632423E+04   -0.11081E-02   -0.88727E-04  4124   0.242E-02    0.747E-02
DAV:  20    -0.485652727950E+04   -0.95527E-03   -0.34312E-04  4252   0.168E-02    0.453E-02
DAV:  21    -0.485652810690E+04   -0.82740E-03   -0.30556E-04  4020   0.133E-02    0.329E-02
DAV:  22    -0.485652891068E+04   -0.80377E-03   -0.28655E-04  3908   0.113E-02    0.248E-02
DAV:  23    -0.485652948000E+04   -0.56933E-03   -0.13716E-04  3532   0.822E-03    0.182E-02
DAV:  24    -0.485652978965E+04   -0.30964E-03   -0.61428E-05  3284   0.553E-03    0.124E-02
DAV:  25    -0.485652999614E+04   -0.20650E-03   -0.39304E-05  2844   0.371E-03    0.894E-03
DAV:  26    -0.485653015144E+04   -0.15530E-03   -0.29341E-05  2852   0.274E-03    0.569E-03
DAV:  27    -0.485653021788E+04   -0.66439E-04   -0.10798E-05  2740   0.195E-03    0.482E-03
DAV:  28    -0.485653024697E+04   -0.29089E-04   -0.46509E-06  2668   0.138E-03    0.292E-03
DAV:  29    -0.485653027109E+04   -0.24114E-04   -0.46757E-06  2652   0.106E-03    0.235E-03
DAV:  30    -0.485653028006E+04   -0.89779E-05   -0.16241E-06  2596   0.727E-04
   2 F= -.49061790E+04 E0= -.49058848E+04  d E =0.395191E+02
 trial-energy change:   39.519136  1 .order   43.199306  -50.188641  136.587253
 step:   0.2932(harm=  0.2687)  dis= 0.14622  next Energy= -4953.148851 (dE=-0.745E+01)
 bond charge predicted
       N       E                     dE             d eps       ncg     rms          rms(c)
DAV:   1    -0.488958737568E+04   -0.33057E+02   -0.35632E+03  3710   0.418E+01    0.360E+01
DAV:   2    -0.490570010025E+04   -0.16113E+02   -0.21043E+02  4340   0.901E+00    0.197E+01
DAV:   3    -0.490357704745E+04    0.21231E+01   -0.18289E+01  4452   0.375E+00    0.146E+01
DAV:   4    -0.490311641161E+04    0.46064E+00   -0.56666E+00  4404   0.262E+00    0.122E+01
DAV:   5    -0.490261375174E+04    0.50266E+00   -0.46520E+00  4572   0.218E+00    0.909E+00
DAV:   6    -0.490219982535E+04    0.41393E+00   -0.38004E+00  4476   0.183E+00    0.689E+00
DAV:   7    -0.490174260359E+04    0.45722E+00   -0.19181E+00  4396   0.118E+00    0.356E+00
DAV:   8    -0.490177564103E+04   -0.33037E-01   -0.14563E+00  4852   0.937E-01    0.419E+00
DAV:   9    -0.490163924962E+04    0.13639E+00   -0.18847E+00  4388   0.708E-01    0.228E+00
DAV:  10    -0.490164221218E+04   -0.29626E-02   -0.74547E-01  4444   0.479E-01    0.182E+00
DAV:  11    -0.490162113422E+04    0.21078E-01   -0.36307E-01  4548   0.309E-01    0.124E+00
DAV:  12    -0.490160911278E+04    0.12021E-01   -0.93951E-02  4300   0.194E-01    0.580E-01
DAV:  13    -0.490161618369E+04   -0.70709E-02   -0.44499E-02  4444   0.144E-01    0.795E-01
DAV:  14    -0.490161108162E+04    0.51021E-02   -0.69414E-02  4308   0.108E-01    0.478E-01
DAV:  15    -0.490161070950E+04    0.37211E-03   -0.26749E-02  4548   0.826E-02    0.300E-01
DAV:  16    -0.490161125708E+04   -0.54758E-03   -0.10245E-02  4092   0.544E-02    0.165E-01
DAV:  17    -0.490161142927E+04   -0.17218E-03   -0.16472E-03  4172   0.317E-02    0.667E-02
DAV:  18    -0.490161215004E+04   -0.72077E-03   -0.50440E-04  4196   0.214E-02    0.795E-02
DAV:  19    -0.490161246992E+04   -0.31989E-03   -0.34344E-04  4212   0.168E-02    0.440E-02
DAV:  20    -0.490161297852E+04   -0.50860E-03   -0.19845E-04  3828   0.126E-02    0.333E-02
DAV:  21    -0.490161321823E+04   -0.23971E-03   -0.15926E-04  3716   0.950E-03    0.239E-02
DAV:  22    -0.490161352126E+04   -0.30303E-03   -0.93167E-05  3116   0.808E-03    0.133E-02
DAV:  23    -0.490161373819E+04   -0.21693E-03   -0.51072E-05  3188   0.621E-03    0.115E-02
DAV:  24    -0.490161387684E+04   -0.13865E-03   -0.29025E-05  2748   0.434E-03    0.732E-03
DAV:  25    -0.490161393053E+04   -0.53683E-04   -0.15250E-05  2716   0.289E-03    0.655E-03
DAV:  26    -0.490161397582E+04   -0.45294E-04   -0.89022E-06  2692   0.183E-03    0.326E-03
DAV:  27    -0.490161400169E+04   -0.25873E-04   -0.51822E-06  2676   0.118E-03    0.281E-03
DAV:  28    -0.490161401108E+04   -0.93819E-05   -0.17738E-06  2580   0.871E-04
   3 F= -.49511995E+04 E0= -.49509213E+04  d E =-.550130E+01
 curvature:  -0.13 expect dE=-0.123E+01 dE for cont linesearch -0.138E+00
 ZBRENT: interpolating
 opt :   0.2565  next Energy= -4951.331168 (dE=-0.563E+01)
 bond charge predicted
       N       E                     dE             d eps       ncg     rms          rms(c)
DAV:   1    -0.490176299384E+04   -0.14899E+00   -0.10972E+01  3662   0.246E+00    0.872E-01
DAV:   2    -0.490180809105E+04   -0.45097E-01   -0.50710E-01  4348   0.454E-01    0.167E+00
DAV:   3    -0.490178125574E+04    0.26835E-01   -0.34247E-01  4356   0.250E-01    0.992E-01
DAV:   4    -0.490177973023E+04    0.15255E-02   -0.19611E-02  4036   0.144E-01    0.697E-01
DAV:   5    -0.490177692783E+04    0.28024E-02   -0.28177E-02  4572   0.110E-01    0.509E-01
DAV:   6    -0.490177947209E+04   -0.25443E-02   -0.49927E-02  4460   0.112E-01    0.609E-01
DAV:   7    -0.490177455680E+04    0.49153E-02   -0.23016E-02  4460   0.841E-02    0.208E-01
DAV:   8    -0.490177531806E+04   -0.76126E-03   -0.46333E-03  4436   0.494E-02    0.200E-01
DAV:   9    -0.490177507192E+04    0.24614E-03   -0.33530E-03  4300   0.343E-02    0.140E-01
DAV:  10    -0.490177490265E+04    0.16927E-03   -0.11819E-03  4148   0.225E-02    0.615E-02
DAV:  11    -0.490177492391E+04   -0.21255E-04   -0.31328E-04  4196   0.131E-02    0.581E-02
DAV:  12    -0.490177490829E+04    0.15617E-04   -0.25489E-04  3732   0.101E-02    0.445E-02
DAV:  13    -0.490177490778E+04    0.51397E-06   -0.17040E-04  2844   0.763E-03    0.280E-02
DAV:  14    -0.490177489988E+04    0.79026E-05   -0.62028E-05  2556   0.584E-03
   4 F= -.49513593E+04 E0= -.49510811E+04  d E =-.566113E+01
 curvature:  -0.13 expect dE=-0.982E+00 dE for cont linesearch -0.569E-02
 trial: gam= 0.18220 g(F)=  0.765E+01 g(S)=  0.000E+00 ort =-0.149E+01 (trialstep = 0.851E+00)
 search vector abs. value=  0.878E+01
 bond charge predicted
       N       E                     dE             d eps       ncg     rms          rms(c)
DAV:   1    -0.489779120873E+04    0.39837E+01   -0.10446E+03  3662   0.248E+01    0.107E+01
DAV:   2    -0.490015049341E+04   -0.23593E+01   -0.32962E+01  4284   0.387E+00    0.651E+00
DAV:   3    -0.490040002212E+04   -0.24953E+00   -0.10909E+01  4596   0.213E+00    0.631E+00
DAV:   4    -0.489986790949E+04    0.53211E+00   -0.25937E+00  4548   0.148E+00    0.473E+00
DAV:   5    -0.489950419851E+04    0.36371E+00   -0.76833E-01  4892   0.993E-01    0.283E+00
DAV:   6    -0.489971837202E+04   -0.21417E+00   -0.10380E+00  4532   0.861E-01    0.442E+00
DAV:   7    -0.489950624619E+04    0.21213E+00   -0.16618E+00  4852   0.656E-01    0.233E+00
DAV:   8    -0.489946551616E+04    0.40730E-01   -0.43401E-01  4740   0.453E-01    0.130E+00
DAV:   9    -0.489947289164E+04   -0.73755E-02   -0.32473E-01  4268   0.304E-01    0.129E+00
DAV:  10    -0.489945597314E+04    0.16918E-01   -0.10166E-01  4404   0.207E-01    0.634E-01
DAV:  11    -0.489945685744E+04   -0.88430E-03   -0.17073E-02  4348   0.134E-01    0.434E-01
DAV:  12    -0.489945589394E+04    0.96349E-03   -0.15418E-02  4228   0.892E-02    0.300E-01
DAV:  13    -0.489945571039E+04    0.18355E-03   -0.10323E-02  4460   0.589E-02    0.250E-01
DAV:  14    -0.489945564624E+04    0.64152E-04   -0.38494E-03  4316   0.425E-02    0.146E-01
DAV:  15    -0.489945594603E+04   -0.29979E-03   -0.12185E-03  4076   0.306E-02    0.709E-02
DAV:  16    -0.489945619079E+04   -0.24476E-03   -0.61558E-04  4180   0.191E-02    0.514E-02
DAV:  17    -0.489945633775E+04   -0.14695E-03   -0.25264E-04  4076   0.108E-02    0.292E-02
DAV:  18    -0.489945651051E+04   -0.17276E-03   -0.11710E-04  3436   0.811E-03    0.239E-02
DAV:  19    -0.489945664838E+04   -0.13787E-03   -0.71205E-05  2948   0.612E-03    0.210E-02
DAV:  20    -0.489945678102E+04   -0.13265E-03   -0.37126E-05  2844   0.494E-03    0.130E-02
DAV:  21    -0.489945686849E+04   -0.87471E-04   -0.28113E-05  2772   0.413E-03    0.105E-02
DAV:  22    -0.489945693617E+04   -0.67674E-04   -0.18605E-05  2748   0.335E-03    0.559E-03
DAV:  23    -0.489945698439E+04   -0.48223E-04   -0.10722E-05  2692   0.236E-03    0.346E-03
DAV:  24    -0.489945701084E+04   -0.26452E-04   -0.61142E-06  2668   0.153E-03    0.318E-03
DAV:  25    -0.489945702383E+04   -0.12988E-04   -0.29036E-06  2620   0.103E-03    0.227E-03
DAV:  26    -0.489945703218E+04   -0.83528E-05   -0.21556E-06  2620   0.793E-04
   5 F= -.49490689E+04 E0= -.49487888E+04  d E =0.229040E+01
 trial-energy change:    2.290402  1 .order    2.662056   -6.283470   11.607581
 step:   0.3240(harm=  0.2990)  dis= 0.04319  next Energy= -4952.575488 (dE=-0.122E+01)
 bond charge predicted
       N       E                     dE             d eps       ncg     rms          rms(c)
DAV:   1    -0.490239087875E+04   -0.29339E+01   -0.40514E+02  3670   0.155E+01    0.556E+00
DAV:   2    -0.490348531560E+04   -0.10944E+01   -0.15069E+01  4452   0.268E+00    0.414E+00
DAV:   3    -0.490318132826E+04    0.30399E+00   -0.16296E+00  4324   0.122E+00    0.399E+00
DAV:   4    -0.490307344651E+04    0.10788E+00   -0.10665E+00  4516   0.789E-01    0.324E+00
DAV:   5    -0.490313197216E+04   -0.58526E-01   -0.92738E-01  4876   0.646E-01    0.299E+00
DAV:   6    -0.490297803323E+04    0.15394E+00   -0.47812E-01  4652   0.479E-01    0.137E+00
DAV:   7    -0.490304176170E+04   -0.63728E-01   -0.69070E-01  4876   0.431E-01    0.259E+00
DAV:   8    -0.490298650182E+04    0.55260E-01   -0.89505E-01  4732   0.373E-01    0.142E+00
DAV:   9    -0.490297383933E+04    0.12662E-01   -0.16105E-01  4564   0.245E-01    0.789E-01
DAV:  10    -0.490297331165E+04    0.52769E-03   -0.40567E-02  4484   0.135E-01    0.577E-01
DAV:  11    -0.490297145178E+04    0.18599E-02   -0.17473E-02  4404   0.948E-02    0.345E-01
DAV:  12    -0.490297070309E+04    0.74870E-03   -0.50775E-03  4244   0.603E-02    0.163E-01
DAV:  13    -0.490297088192E+04   -0.17884E-03   -0.38303E-03  4452   0.462E-02    0.147E-01
DAV:  14    -0.490297070799E+04    0.17393E-03   -0.12712E-03  4124   0.316E-02    0.763E-02
DAV:  15    -0.490297075893E+04   -0.50946E-04   -0.54770E-04  4140   0.172E-02    0.518E-02
DAV:  16    -0.490297078758E+04   -0.28643E-04   -0.29689E-04  4108   0.112E-02    0.296E-02
DAV:  17    -0.490297082154E+04   -0.33964E-04   -0.12814E-04  2908   0.729E-03    0.187E-02
DAV:  18    -0.490297086809E+04   -0.46551E-04   -0.61676E-05  2644   0.507E-03    0.171E-02
DAV:  19    -0.490297091535E+04   -0.47257E-04   -0.50345E-05  2644   0.467E-03    0.127E-02
DAV:  20    -0.490297095252E+04   -0.37172E-04   -0.27458E-05  2668   0.364E-03    0.103E-02
DAV:  21    -0.490297098480E+04   -0.32278E-04   -0.21492E-05  2644   0.316E-03    0.109E-02
DAV:  22    -0.490297099780E+04   -0.13005E-04   -0.11114E-05  2604   0.215E-03    0.459E-03
DAV:  23    -0.490297101472E+04   -0.16914E-04   -0.71782E-06  2596   0.170E-03    0.711E-03
DAV:  24    -0.490297102078E+04   -0.60668E-05   -0.40239E-06  2564   0.125E-03
   6 F= -.49525663E+04 E0= -.49522878E+04  d E =-.120697E+01
 curvature:  -0.18 expect dE=-0.541E+00 dE for cont linesearch -0.103E-04
 trial: gam= 0.22948 g(F)=  0.305E+01 g(S)=  0.000E+00 ort =-0.226E-01 (trialstep = 0.746E+00)
 search vector abs. value=  0.350E+01
 bond charge predicted
       N       E                     dE             d eps       ncg     rms          rms(c)
DAV:   1    -0.490182276702E+04    0.11482E+01   -0.31519E+02  3662   0.137E+01    0.537E+00
DAV:   2    -0.490320812459E+04   -0.13854E+01   -0.12380E+01  4452   0.266E+00    0.585E+00
DAV:   3    -0.490258372636E+04    0.62440E+00   -0.61971E+00  4396   0.158E+00    0.419E+00
DAV:   4    -0.490239610369E+04    0.18762E+00   -0.14931E+00  4540   0.865E-01    0.344E+00
DAV:   5    -0.490232575729E+04    0.70346E-01   -0.93364E-01  4324   0.635E-01    0.252E+00
DAV:   6    -0.490237303171E+04   -0.47274E-01   -0.80268E-01  4748   0.597E-01    0.269E+00
DAV:   7    -0.490226406221E+04    0.10897E+00   -0.36412E-01  4756   0.458E-01    0.156E+00
DAV:   8    -0.490227141313E+04   -0.73509E-02   -0.35142E-01  4396   0.298E-01    0.131E+00
DAV:   9    -0.490225252233E+04    0.18891E-01   -0.22679E-01  4516   0.198E-01    0.702E-01
DAV:  10    -0.490225075597E+04    0.17664E-02   -0.34000E-02  4364   0.123E-01    0.327E-01
DAV:  11    -0.490225189996E+04   -0.11440E-02   -0.86234E-03  4180   0.666E-02    0.251E-01
DAV:  12    -0.490225126731E+04    0.63265E-03   -0.62516E-03  4332   0.501E-02    0.154E-01
DAV:  13    -0.490225129059E+04   -0.23285E-04   -0.21877E-03  4388   0.347E-02    0.124E-01
DAV:  14    -0.490225154150E+04   -0.25091E-03   -0.37706E-03  4660   0.305E-02    0.186E-01
DAV:  15    -0.490225126183E+04    0.27968E-03   -0.11139E-03  4292   0.233E-02    0.509E-02
DAV:  16    -0.490225138344E+04   -0.12162E-03   -0.36056E-04  4108   0.132E-02    0.377E-02
DAV:  17    -0.490225143408E+04   -0.50641E-04   -0.12784E-04  3300   0.806E-03    0.174E-02
DAV:  18    -0.490225150430E+04   -0.70214E-04   -0.52136E-05  2748   0.595E-03    0.209E-02
DAV:  19    -0.490225155560E+04   -0.51298E-04   -0.38380E-05  2644   0.467E-03    0.110E-02
DAV:  20    -0.490225160837E+04   -0.52774E-04   -0.17305E-05  2652   0.359E-03    0.799E-03
DAV:  21    -0.490225164582E+04   -0.37447E-04   -0.12687E-05  2660   0.283E-03    0.574E-03
DAV:  22    -0.490225167413E+04   -0.28310E-04   -0.88073E-06  2628   0.210E-03    0.414E-03
DAV:  23    -0.490225169196E+04   -0.17837E-04   -0.48347E-06  2652   0.153E-03    0.297E-03
DAV:  24    -0.490225170354E+04   -0.11579E-04   -0.30989E-06  2604   0.110E-03    0.228E-03
DAV:  25    -0.490225171023E+04   -0.66894E-05   -0.15738E-06  2572   0.720E-04
   7 F= -.49518569E+04 E0= -.49515771E+04  d E =0.709319E+00
 trial-energy change:    0.709319  1 .order    0.853663   -2.271589    3.978916
 step:   0.2958(harm=  0.2711)  dis= 0.02724  next Energy= -4953.025697 (dE=-0.459E+00)
 bond charge predicted
       N       E                     dE             d eps       ncg     rms          rms(c)
DAV:   1    -0.490328053729E+04   -0.10288E+01   -0.11528E+02  3662   0.827E+00    0.311E+00
DAV:   2    -0.490405497351E+04   -0.77444E+00   -0.57783E+00  4524   0.182E+00    0.455E+00
DAV:   3    -0.490355473651E+04    0.50024E+00   -0.10367E+00  4356   0.105E+00    0.305E+00
DAV:   4    -0.490345165511E+04    0.10308E+00   -0.78792E-01  4604   0.521E-01    0.187E+00
DAV:   5    -0.490345994335E+04   -0.82882E-02   -0.23833E-01  4468   0.412E-01    0.172E+00
DAV:   6    -0.490345122257E+04    0.87208E-02   -0.25302E-01  4436   0.372E-01    0.168E+00
DAV:   7    -0.490342554274E+04    0.25680E-01   -0.72132E-02  4516   0.280E-01    0.860E-01
DAV:   8    -0.490342751731E+04   -0.19746E-02   -0.10452E-01  4516   0.199E-01    0.740E-01
DAV:   9    -0.490342385711E+04    0.36602E-02   -0.81749E-02  4492   0.132E-01    0.531E-01
DAV:  10    -0.490342178180E+04    0.20753E-02   -0.86855E-03  4532   0.887E-02    0.309E-01
DAV:  11    -0.490342196412E+04   -0.18232E-03   -0.11608E-02  4508   0.590E-02    0.207E-01
DAV:  12    -0.490342136871E+04    0.59541E-03   -0.21626E-03  4220   0.387E-02    0.735E-02
DAV:  13    -0.490342158658E+04   -0.21787E-03   -0.11205E-03  4300   0.234E-02    0.100E-01
DAV:  14    -0.490342150716E+04    0.79416E-04   -0.75226E-04  4324   0.191E-02    0.781E-02
DAV:  15    -0.490342149086E+04    0.16299E-04   -0.62649E-04  3764   0.128E-02    0.451E-02
DAV:  16    -0.490342151734E+04   -0.26481E-04   -0.20009E-04  2940   0.832E-03    0.212E-02
DAV:  17    -0.490342154109E+04   -0.23744E-04   -0.73378E-05  2684   0.540E-03    0.124E-02
DAV:  18    -0.490342158008E+04   -0.38996E-04   -0.28098E-05  2660   0.381E-03    0.899E-03
DAV:  19    -0.490342161161E+04   -0.31526E-04   -0.12607E-05  2652   0.298E-03    0.601E-03
DAV:  20    -0.490342163225E+04   -0.20646E-04   -0.96625E-06  2628   0.223E-03    0.585E-03
DAV:  21    -0.490342164921E+04   -0.16953E-04   -0.63770E-06  2620   0.180E-03    0.323E-03
DAV:  22    -0.490342166468E+04   -0.15474E-04   -0.48568E-06  2636   0.144E-03    0.338E-03
DAV:  23    -0.490342167104E+04   -0.63570E-05   -0.30253E-06  2588   0.102E-03
   8 F= -.49530213E+04 E0= -.49527426E+04  d E =-.455069E+00
 curvature:  -0.16 expect dE=-0.128E+00 dE for cont linesearch -0.529E-05
 trial: gam= 0.25936 g(F)=  0.825E+00 g(S)=  0.000E+00 ort =-0.109E-01 (trialstep = 0.656E+00)
 search vector abs. value=  0.106E+01
 bond charge predicted
       N       E                     dE             d eps       ncg     rms          rms(c)
DAV:   1    -0.490344886345E+04   -0.27199E-01   -0.61227E+01  3662   0.628E+00    0.198E+00
DAV:   2    -0.490376717074E+04   -0.31831E+00   -0.21835E+00  4412   0.111E+00    0.290E+00
DAV:   3    -0.490354875760E+04    0.21841E+00   -0.43695E-01  4340   0.559E-01    0.124E+00
DAV:   4    -0.490357107502E+04   -0.22317E-01   -0.20637E-01  4260   0.277E-01    0.141E+00
DAV:   5    -0.490355340577E+04    0.17669E-01   -0.28101E-01  4444   0.237E-01    0.110E+00
DAV:   6    -0.490356173163E+04   -0.83259E-02   -0.13197E-01  4828   0.250E-01    0.117E+00
DAV:   7    -0.490354744502E+04    0.14287E-01   -0.96855E-02  4540   0.161E-01    0.680E-01
DAV:   8    -0.490354626019E+04    0.11848E-02   -0.48907E-02  4620   0.117E-01    0.415E-01
DAV:   9    -0.490354653658E+04   -0.27639E-03   -0.25682E-02  4316   0.831E-02    0.386E-01
DAV:  10    -0.490354525310E+04    0.12835E-02   -0.37586E-03  4228   0.538E-02    0.143E-01
DAV:  11    -0.490354534807E+04   -0.94970E-04   -0.24209E-03  4244   0.311E-02    0.118E-01
DAV:  12    -0.490354543208E+04   -0.84012E-04   -0.32081E-03  4444   0.234E-02    0.128E-01
DAV:  13    -0.490354527852E+04    0.15356E-03   -0.35150E-04  4052   0.155E-02    0.509E-02
DAV:  14    -0.490354530929E+04   -0.30768E-04   -0.14090E-04  3852   0.105E-02    0.273E-02
DAV:  15    -0.490354532580E+04   -0.16515E-04   -0.64545E-05  3028   0.659E-03    0.214E-02
DAV:  16    -0.490354533254E+04   -0.67397E-05   -0.33769E-05  2556   0.424E-03
   9 F= -.49531534E+04 E0= -.49528745E+04  d E =-.132079E+00
 trial-energy change:   -0.132079  1 .order   -0.132932   -0.539264    0.273399
 step:   0.4352(harm=  0.4352)  dis= 0.01740  next Energy= -4953.200248 (dE=-0.179E+00)
 bond charge predicted
       N       E                     dE             d eps       ncg     rms          rms(c)
DAV:   1    -0.490358360467E+04   -0.38279E-01   -0.69301E+00  3662   0.209E+00    0.658E-01
DAV:   2    -0.490363062016E+04   -0.47015E-01   -0.38456E-01  4372   0.367E-01    0.185E+00
DAV:   3    -0.490359026125E+04    0.40359E-01   -0.30812E-01  4308   0.195E-01    0.580E-01
DAV:   4    -0.490359759181E+04   -0.73306E-02   -0.41514E-02  4116   0.104E-01    0.551E-01
DAV:   5    -0.490359460560E+04    0.29862E-02   -0.24094E-02  4212   0.861E-02    0.324E-01
DAV:   6    -0.490359685051E+04   -0.22449E-02   -0.26449E-02  4292   0.771E-02    0.457E-01
DAV:   7    -0.490359440472E+04    0.24458E-02   -0.13439E-02  4364   0.641E-02    0.212E-01
DAV:   8    -0.490359444596E+04   -0.41239E-04   -0.30666E-03  4180   0.406E-02    0.124E-01
DAV:   9    -0.490359439640E+04    0.49555E-04   -0.65384E-04  4252   0.224E-02    0.895E-02
DAV:  10    -0.490359434088E+04    0.55521E-04   -0.48506E-04  4340   0.166E-02    0.606E-02
DAV:  11    -0.490359433103E+04    0.98518E-05   -0.44004E-04  4100   0.108E-02    0.436E-02
DAV:  12    -0.490359431513E+04    0.15900E-04   -0.18511E-04  2860   0.770E-03    0.195E-02
DAV:  13    -0.490359431660E+04   -0.14740E-05   -0.55511E-05  2420   0.508E-03
  10 F= -.49531996E+04 E0= -.49529207E+04  d E =-.178318E+00
 curvature:  -0.28 expect dE=-0.131E+00 dE for cont linesearch -0.306E-06
 trial: gam= 0.57375 g(F)=  0.471E+00 g(S)=  0.000E+00 ort =-0.108E-02 (trialstep = 0.612E+00)
 search vector abs. value=  0.817E+00
 bond charge predicted
       N       E                     dE             d eps       ncg     rms          rms(c)
DAV:   1    -0.490365123329E+04   -0.56918E-01   -0.42144E+01  3662   0.521E+00    0.142E+00
DAV:   2    -0.490376029654E+04   -0.10906E+00   -0.10224E+00  4244   0.795E-01    0.162E+00
DAV:   3    -0.490373279816E+04    0.27498E-01   -0.41397E-01  4372   0.366E-01    0.136E+00
DAV:   4    -0.490372088006E+04    0.11918E-01   -0.13020E-01  4268   0.225E-01    0.973E-01
DAV:   5    -0.490372512684E+04   -0.42468E-02   -0.16005E-01  4540   0.180E-01    0.108E+00
DAV:   6    -0.490372529167E+04   -0.16483E-03   -0.30580E-02  4820   0.195E-01    0.105E+00
DAV:   7    -0.490371546571E+04    0.98260E-02   -0.53220E-02  4612   0.152E-01    0.457E-01
DAV:   8    -0.490371568816E+04   -0.22244E-03   -0.19620E-02  4292   0.838E-02    0.314E-01
DAV:   9    -0.490371544376E+04    0.24440E-03   -0.55993E-03  4444   0.553E-02    0.237E-01
DAV:  10    -0.490371511119E+04    0.33257E-03   -0.18790E-03  4252   0.402E-02    0.117E-01
DAV:  11    -0.490371513911E+04   -0.27922E-04   -0.13169E-03  4276   0.252E-02    0.938E-02
DAV:  12    -0.490371510359E+04    0.35526E-04   -0.97665E-04  4196   0.181E-02    0.823E-02
DAV:  13    -0.490371506376E+04    0.39830E-04   -0.61484E-04  4068   0.127E-02    0.422E-02
DAV:  14    -0.490371507021E+04   -0.64579E-05   -0.14671E-04  3260   0.934E-03    0.251E-02
DAV:  15    -0.490371507401E+04   -0.38015E-05   -0.49173E-05  2796   0.600E-03
  11 F= -.49533307E+04 E0= -.49530523E+04  d E =-.131057E+00
 trial-energy change:   -0.131057  1 .order   -0.132173   -0.287602    0.023256
 step:   0.5650(harm=  0.5659)  dis= 0.02356  next Energy= -4953.331589 (dE=-0.132E+00)
 bond charge predicted
       N       E                     dE             d eps       ncg     rms          rms(c)
DAV:   1    -0.490371633313E+04   -0.12629E-02   -0.24508E-01  3662   0.398E-01    0.107E-01
DAV:   2    -0.490371696996E+04   -0.63683E-03   -0.67254E-03  4236   0.593E-02    0.144E-01
DAV:   3    -0.490371682977E+04    0.14019E-03   -0.59115E-04  4372   0.276E-02    0.113E-01
DAV:   4    -0.490371674491E+04    0.84861E-04   -0.10326E-03  3980   0.168E-02    0.711E-02
DAV:   5    -0.490371676214E+04   -0.17235E-04   -0.67999E-04  4220   0.129E-02    0.724E-02
DAV:   6    -0.490371682266E+04   -0.60519E-04   -0.11446E-03  4228   0.146E-02    0.961E-02
DAV:   7    -0.490371672150E+04    0.10117E-03   -0.81466E-04  3916   0.120E-02    0.315E-02
DAV:   8    -0.490371673848E+04   -0.16989E-04   -0.92884E-05  2884   0.651E-03    0.257E-02
DAV:   9    -0.490371673618E+04    0.23057E-05   -0.31473E-05  2372   0.459E-03
  12 F= -.49533316E+04 E0= -.49530532E+04  d E =-.131962E+00
 curvature:  -0.49 expect dE=-0.169E+00 dE for cont linesearch -0.204E-07
 trial: gam= 0.72351 g(F)=  0.343E+00 g(S)=  0.000E+00 ort = 0.184E-03 (trialstep = 0.602E+00)
 search vector abs. value=  0.771E+00
 bond charge predicted
       N       E                     dE             d eps       ncg     rms          rms(c)
DAV:   1    -0.490372549387E+04   -0.87554E-02   -0.41873E+01  3662   0.520E+00    0.138E+00
DAV:   2    -0.490381869924E+04   -0.93205E-01   -0.11040E+00  4212   0.764E-01    0.157E+00
DAV:   3    -0.490383152314E+04   -0.12824E-01   -0.37515E-01  4644   0.349E-01    0.187E+00
DAV:   4    -0.490379484378E+04    0.36679E-01   -0.21370E-01  4300   0.242E-01    0.985E-01
DAV:   5    -0.490379793112E+04   -0.30873E-02   -0.16008E-01  4436   0.179E-01    0.899E-01
DAV:   6    -0.490380372439E+04   -0.57933E-02   -0.90365E-02  4612   0.186E-01    0.949E-01
DAV:   7    -0.490379317305E+04    0.10551E-01   -0.10318E-01  4444   0.145E-01    0.477E-01
DAV:   8    -0.490379286745E+04    0.30560E-03   -0.24558E-02  4412   0.867E-02    0.251E-01
DAV:   9    -0.490379283538E+04    0.32071E-04   -0.70086E-03  4204   0.496E-02    0.207E-01
DAV:  10    -0.490379258017E+04    0.25521E-03   -0.21660E-03  4252   0.335E-02    0.122E-01
DAV:  11    -0.490379251638E+04    0.63794E-04   -0.10701E-03  4132   0.226E-02    0.660E-02
DAV:  12    -0.490379251094E+04    0.54364E-05   -0.37893E-04  4260   0.130E-02    0.473E-02
DAV:  13    -0.490379249166E+04    0.19284E-04   -0.20299E-04  3988   0.957E-03    0.224E-02
DAV:  14    -0.490379250769E+04   -0.16032E-04   -0.12128E-04  3172   0.748E-03    0.252E-02
DAV:  15    -0.490379250464E+04    0.30420E-05   -0.74731E-05  2532   0.548E-03
  13 F= -.49534165E+04 E0= -.49531383E+04  d E =-.848455E-01
 trial-energy change:   -0.084845  1 .order   -0.083218   -0.206991    0.040555
 step:   0.5069(harm=  0.5037)  dis= 0.02450  next Energy= -4953.419661 (dE=-0.881E-01)
 bond charge predicted
       N       E                     dE             d eps       ncg     rms          rms(c)
DAV:   1    -0.490379526948E+04   -0.27618E-02   -0.10528E+00  3662   0.827E-01    0.218E-01
DAV:   2    -0.490379774963E+04   -0.24802E-02   -0.27396E-02  4220   0.122E-01    0.260E-01
DAV:   3    -0.490379795872E+04   -0.20909E-03   -0.10146E-02  4604   0.548E-02    0.314E-01
DAV:   4    -0.490379704724E+04    0.91148E-03   -0.64950E-03  4148   0.388E-02    0.156E-01
DAV:   5    -0.490379718411E+04   -0.13687E-03   -0.40011E-03  4388   0.286E-02    0.153E-01
DAV:   6    -0.490379732515E+04   -0.14104E-03   -0.26643E-03  4564   0.305E-02    0.149E-01
DAV:   7    -0.490379704496E+04    0.28019E-03   -0.70404E-04  4268   0.244E-02    0.758E-02
DAV:   8    -0.490379703833E+04    0.66286E-05   -0.49511E-04  4220   0.133E-02    0.377E-02
DAV:   9    -0.490379704249E+04   -0.41583E-05   -0.19007E-04  3364   0.801E-03    0.342E-02
DAV:  10    -0.490379703226E+04    0.10229E-04   -0.70561E-05  2380   0.543E-03    0.176E-02
DAV:  11    -0.490379703338E+04   -0.11161E-05   -0.23130E-05  2276   0.379E-03
  14 F= -.49534197E+04 E0= -.49531415E+04  d E =-.880832E-01
 curvature:  -0.56 expect dE=-0.159E+00 dE for cont linesearch -0.544E-07
 trial: gam= 0.81200 g(F)=  0.282E+00 g(S)=  0.000E+00 ort = 0.273E-03 (trialstep = 0.568E+00)
 search vector abs. value=  0.791E+00
 bond charge predicted
       N       E                     dE             d eps       ncg     rms          rms(c)
DAV:   1    -0.490382611380E+04   -0.29082E-01   -0.35988E+01  3662   0.479E+00    0.121E+00
DAV:   2    -0.490390965483E+04   -0.83541E-01   -0.10040E+00  4228   0.684E-01    0.174E+00
DAV:   3    -0.490390420399E+04    0.54508E-02   -0.46014E-01  4580   0.296E-01    0.161E+00
DAV:   4    -0.490387924384E+04    0.24960E-01   -0.14673E-01  4332   0.195E-01    0.653E-01
DAV:   5    -0.490388789955E+04   -0.86557E-02   -0.47345E-02  4484   0.168E-01    0.894E-01
DAV:   6    -0.490388388335E+04    0.40162E-02   -0.69740E-02  4476   0.158E-01    0.657E-01
DAV:   7    -0.490388045929E+04    0.34241E-02   -0.20296E-02  4420   0.113E-01    0.337E-01
DAV:   8    -0.490388026967E+04    0.18962E-03   -0.91841E-03  4188   0.642E-02    0.208E-01
DAV:   9    -0.490388026479E+04    0.48808E-05   -0.34535E-03  4164   0.417E-02    0.170E-01
DAV:  10    -0.490387999509E+04    0.26970E-03   -0.22859E-03  4268   0.285E-02    0.919E-02
DAV:  11    -0.490388001417E+04   -0.19073E-04   -0.92619E-04  4364   0.203E-02    0.768E-02
DAV:  12    -0.490387997629E+04    0.37872E-04   -0.51654E-04  4188   0.154E-02    0.528E-02
DAV:  13    -0.490387996035E+04    0.15947E-04   -0.25883E-04  3548   0.100E-02    0.245E-02
DAV:  14    -0.490387996663E+04   -0.62859E-05   -0.11695E-04  2900   0.747E-03    0.169E-02
DAV:  15    -0.490387996543E+04    0.12076E-05   -0.32937E-05  2460   0.487E-03
  15 F= -.49535077E+04 E0= -.49532295E+04  d E =-.879720E-01
 trial-energy change:   -0.087972  1 .order   -0.087760   -0.160654   -0.014867
 step:   0.6264(harm=  0.6264)  dis= 0.03971  next Energy= -4953.508208 (dE=-0.885E-01)
 bond charge predicted
       N       E                     dE             d eps       ncg     rms          rms(c)
DAV:   1    -0.490387983941E+04    0.12722E-03   -0.37494E-01  3662   0.489E-01    0.124E-01
DAV:   2    -0.490388071680E+04   -0.87739E-03   -0.10905E-02  4252   0.698E-02    0.184E-01
DAV:   3    -0.490388067732E+04    0.39472E-04   -0.67967E-03  4428   0.300E-02    0.190E-01
DAV:   4    -0.490388039061E+04    0.28671E-03   -0.37227E-04  4052   0.207E-02    0.788E-02
DAV:   5    -0.490388045656E+04   -0.65952E-04   -0.57429E-04  4204   0.165E-02    0.840E-02
DAV:   6    -0.490388046688E+04   -0.10318E-04   -0.78604E-04  4356   0.157E-02    0.810E-02
DAV:   7    -0.490388040572E+04    0.61164E-04   -0.32292E-04  4156   0.123E-02    0.357E-02
DAV:   8    -0.490388040816E+04   -0.24397E-05   -0.12104E-04  2852   0.750E-03    0.256E-02
DAV:   9    -0.490388040714E+04    0.10165E-05   -0.40886E-05  2444   0.471E-03
  16 F= -.49535084E+04 E0= -.49532303E+04  d E =-.887469E-01
 curvature:  -0.88 expect dE=-0.294E+00 dE for cont linesearch -0.120E-07
 trial: gam= 1.16202 g(F)=  0.336E+00 g(S)=  0.000E+00 ort =-0.104E-03 (trialstep = 0.327E+00)
 search vector abs. value=  0.140E+01
 bond charge predicted
       N       E                     dE             d eps       ncg     rms          rms(c)
DAV:   1    -0.490393323193E+04   -0.52824E-01   -0.20219E+01  3662   0.354E+00    0.886E-01
DAV:   2    -0.490398572365E+04   -0.52492E-01   -0.60478E-01  4156   0.509E-01    0.155E+00
DAV:   3    -0.490397029230E+04    0.15431E-01   -0.27992E-01  4388   0.227E-01    0.111E+00
DAV:   4    -0.490396349373E+04    0.67986E-02   -0.38212E-02  4180   0.134E-01    0.560E-01
DAV:   5    -0.490396571638E+04   -0.22227E-02   -0.16703E-02  4572   0.116E-01    0.614E-01
DAV:   6    -0.490396501344E+04    0.70294E-03   -0.45799E-02  4380   0.108E-01    0.456E-01
DAV:   7    -0.490396285101E+04    0.21624E-02   -0.22735E-02  4356   0.799E-02    0.205E-01
DAV:   8    -0.490396320923E+04   -0.35823E-03   -0.48006E-03  4268   0.440E-02    0.194E-01
DAV:   9    -0.490396292077E+04    0.28846E-03   -0.14459E-03  4308   0.302E-02    0.105E-01
DAV:  10    -0.490396285544E+04    0.65325E-04   -0.62922E-04  4252   0.213E-02    0.452E-02
DAV:  11    -0.490396286631E+04   -0.10860E-04   -0.22012E-04  4132   0.120E-02    0.362E-02
DAV:  12    -0.490396285668E+04    0.96242E-05   -0.10103E-04  3100   0.783E-03    0.249E-02
DAV:  13    -0.490396286181E+04   -0.51283E-05   -0.82623E-05  2532   0.648E-03
  17 F= -.49535911E+04 E0= -.49533130E+04  d E =-.826775E-01
 trial-energy change:   -0.082677  1 .order   -0.082499   -0.109728   -0.055269
 step:   0.6588(harm=  0.6588)  dis= 0.06318  next Energy= -4953.618982 (dE=-0.111E+00)
 bond charge predicted
       N       E                     dE             d eps       ncg     rms          rms(c)
DAV:   1    -0.490396137627E+04    0.14804E-02   -0.20846E+01  3662   0.361E+00    0.895E-01
DAV:   2    -0.490401577278E+04   -0.54397E-01   -0.62039E-01  4148   0.516E-01    0.157E+00
DAV:   3    -0.490399949421E+04    0.16279E-01   -0.25680E-01  4348   0.232E-01    0.111E+00
DAV:   4    -0.490399281882E+04    0.66754E-02   -0.39464E-02  4132   0.136E-01    0.573E-01
DAV:   5    -0.490399489510E+04   -0.20763E-02   -0.18909E-02  4620   0.115E-01    0.618E-01
DAV:   6    -0.490399402384E+04    0.87127E-03   -0.38944E-02  4396   0.108E-01    0.440E-01
DAV:   7    -0.490399219353E+04    0.18303E-02   -0.18675E-02  4364   0.780E-02    0.221E-01
DAV:   8    -0.490399241950E+04   -0.22597E-03   -0.59538E-03  4292   0.449E-02    0.192E-01
DAV:   9    -0.490399212711E+04    0.29239E-03   -0.16774E-03  4252   0.306E-02    0.101E-01
DAV:  10    -0.490399209284E+04    0.34271E-04   -0.60809E-04  4236   0.210E-02    0.576E-02
DAV:  11    -0.490399210150E+04   -0.86604E-05   -0.27972E-04  4268   0.135E-02    0.537E-02
DAV:  12    -0.490399207757E+04    0.23933E-04   -0.24514E-04  3548   0.937E-03    0.303E-02
DAV:  13    -0.490399208096E+04   -0.33898E-05   -0.82197E-05  2564   0.703E-03
  18 F= -.49536190E+04 E0= -.49533411E+04  d E =-.110606E+00
 curvature:  -1.38 expect dE=-0.517E+00 dE for cont linesearch -0.648E-05
 trial: gam= 1.05389 g(F)=  0.375E+00 g(S)=  0.000E+00 ort =-0.257E-02 (trialstep = 0.286E+00)
 search vector abs. value=  0.193E+01
 bond charge predicted
       N       E                     dE             d eps       ncg     rms          rms(c)
DAV:   1    -0.490404329323E+04   -0.51216E-01   -0.21516E+01  3662   0.363E+00    0.911E-01
DAV:   2    -0.490409574721E+04   -0.52454E-01   -0.60296E-01  4220   0.522E-01    0.150E+00
DAV:   3    -0.490408254233E+04    0.13205E-01   -0.22284E-01  4300   0.234E-01    0.113E+00
DAV:   4    -0.490407696658E+04    0.55758E-02   -0.60012E-02  4348   0.147E-01    0.712E-01
DAV:   5    -0.490407488288E+04    0.20837E-02   -0.43776E-02  4444   0.125E-01    0.522E-01
DAV:   6    -0.490407855216E+04   -0.36693E-02   -0.56407E-02  4428   0.119E-01    0.675E-01
DAV:   7    -0.490407337730E+04    0.51749E-02   -0.26373E-02  4444   0.947E-02    0.248E-01
DAV:   8    -0.490407415410E+04   -0.77680E-03   -0.50827E-03  4308   0.574E-02    0.203E-01
DAV:   9    -0.490407376122E+04    0.39288E-03   -0.15259E-03  4308   0.344E-02    0.105E-01
DAV:  10    -0.490407378578E+04   -0.24563E-04   -0.95681E-04  4428   0.230E-02    0.939E-02
DAV:  11    -0.490407371464E+04    0.71143E-04   -0.72100E-04  4292   0.161E-02    0.569E-02
DAV:  12    -0.490407370436E+04    0.10278E-04   -0.38515E-04  3940   0.106E-02    0.300E-02
DAV:  13    -0.490407370420E+04    0.16560E-06   -0.10625E-04  3036   0.694E-03    0.170E-02
DAV:  14    -0.490407370783E+04   -0.36302E-05   -0.35257E-05  2508   0.524E-03
  19 F= -.49536980E+04 E0= -.49534200E+04  d E =-.789733E-01
 trial-energy change:   -0.078973  1 .order   -0.078542   -0.106630   -0.050454
 step:   0.5234(harm=  0.5433)  dis= 0.06061  next Energy= -4953.719159 (dE=-0.100E+00)
 bond charge predicted
       N       E                     dE             d eps       ncg     rms          rms(c)
DAV:   1    -0.490407719386E+04   -0.34897E-02   -0.14783E+01  3662   0.301E+00    0.751E-01
DAV:   2    -0.490411411953E+04   -0.36926E-01   -0.42375E-01  4228   0.433E-01    0.127E+00
DAV:   3    -0.490410376806E+04    0.10351E-01   -0.13415E-01  4356   0.194E-01    0.933E-01
DAV:   4    -0.490410091792E+04    0.28501E-02   -0.31373E-02  4300   0.122E-01    0.616E-01
DAV:   5    -0.490409886557E+04    0.20523E-02   -0.30217E-02  4380   0.104E-01    0.420E-01
DAV:   6    -0.490410187981E+04   -0.30142E-02   -0.39840E-02  4412   0.997E-02    0.575E-01
DAV:   7    -0.490409799548E+04    0.38843E-02   -0.17393E-02  4420   0.803E-02    0.207E-01
DAV:   8    -0.490409858977E+04   -0.59429E-03   -0.33587E-03  4284   0.476E-02    0.172E-01
DAV:   9    -0.490409831940E+04    0.27038E-03   -0.10023E-03  4276   0.288E-02    0.879E-02
DAV:  10    -0.490409833349E+04   -0.14093E-04   -0.72751E-04  4380   0.192E-02    0.767E-02
DAV:  11    -0.490409829005E+04    0.43444E-04   -0.50133E-04  4188   0.133E-02    0.488E-02
DAV:  12    -0.490409827962E+04    0.10430E-04   -0.27520E-04  3372   0.883E-03    0.241E-02
DAV:  13    -0.490409828220E+04   -0.25873E-05   -0.76995E-05  2836   0.579E-03
  20 F= -.49537198E+04 E0= -.49534418E+04  d E =-.100754E+00
 curvature:  -1.40 expect dE=-0.441E+00 dE for cont linesearch -0.165E-04
 trial: gam= 0.73370 g(F)=  0.315E+00 g(S)=  0.000E+00 ort = 0.478E-02 (trialstep = 0.334E+00)
 search vector abs. value=  0.136E+01
 bond charge predicted
       N       E                     dE             d eps       ncg     rms          rms(c)
DAV:   1    -0.490414626441E+04   -0.47985E-01   -0.21145E+01  3662   0.360E+00    0.883E-01
DAV:   2    -0.490420256531E+04   -0.56301E-01   -0.64235E-01  4164   0.509E-01    0.156E+00
DAV:   3    -0.490418567636E+04    0.16889E-01   -0.22398E-01  4348   0.222E-01    0.107E+00
DAV:   4    -0.490417903471E+04    0.66417E-02   -0.38537E-02  4076   0.129E-01    0.502E-01
DAV:   5    -0.490418268717E+04   -0.36525E-02   -0.23533E-02  4484   0.110E-01    0.660E-01
DAV:   6    -0.490418076747E+04    0.19197E-02   -0.58460E-02  4508   0.109E-01    0.467E-01
DAV:   7    -0.490417862317E+04    0.21443E-02   -0.61457E-03  4460   0.692E-02    0.187E-01
DAV:   8    -0.490417905344E+04   -0.43027E-03   -0.20464E-03  4412   0.399E-02    0.191E-01
DAV:   9    -0.490417870224E+04    0.35120E-03   -0.12127E-03  4228   0.291E-02    0.919E-02
DAV:  10    -0.490417870130E+04    0.94279E-06   -0.83327E-04  4132   0.189E-02    0.606E-02
DAV:  11    -0.490417869670E+04    0.45961E-05   -0.51633E-04  4244   0.130E-02    0.534E-02
DAV:  12    -0.490417867252E+04    0.24182E-04   -0.20895E-04  3340   0.971E-03    0.272E-02
DAV:  13    -0.490417867874E+04   -0.62211E-05   -0.79456E-05  2668   0.660E-03
  21 F= -.49537967E+04 E0= -.49535187E+04  d E =-.768771E-01
 trial-energy change:   -0.076877  1 .order   -0.076595   -0.106343   -0.046847
 step:   0.5839(harm=  0.5964)  dis= 0.05325  next Energy= -4953.814362 (dE=-0.946E-01)
 bond charge predicted
       N       E                     dE             d eps       ncg     rms          rms(c)
DAV:   1    -0.490418160687E+04   -0.29344E-02   -0.11907E+01  3662   0.270E+00    0.659E-01
DAV:   2    -0.490421328468E+04   -0.31678E-01   -0.37274E-01  4156   0.380E-01    0.118E+00
DAV:   3    -0.490420364052E+04    0.96442E-02   -0.10840E-01  4364   0.165E-01    0.813E-01
DAV:   4    -0.490420023877E+04    0.34018E-02   -0.11329E-02  4076   0.969E-02    0.379E-01
DAV:   5    -0.490420218807E+04   -0.19493E-02   -0.14114E-02  4508   0.853E-02    0.493E-01
DAV:   6    -0.490420123855E+04    0.94952E-03   -0.28288E-02  4516   0.808E-02    0.345E-01
DAV:   7    -0.490420000175E+04    0.12368E-02   -0.65994E-03  4396   0.529E-02    0.143E-01
DAV:   8    -0.490420019967E+04   -0.19793E-03   -0.17952E-03  4364   0.320E-02    0.147E-01
DAV:   9    -0.490419997453E+04    0.22515E-03   -0.80667E-04  4148   0.221E-02    0.653E-02
DAV:  10    -0.490419998414E+04   -0.96190E-05   -0.45819E-04  4052   0.144E-02    0.447E-02
DAV:  11    -0.490419997756E+04    0.65870E-05   -0.25661E-04  3900   0.977E-03    0.371E-02
DAV:  12    -0.490419996910E+04    0.84566E-05   -0.92174E-05  2676   0.698E-03
  22 F= -.49538151E+04 E0= -.49535373E+04  d E =-.953091E-01
 curvature:  -1.27 expect dE=-0.390E+00 dE for cont linesearch -0.227E-04
 trial: gam= 0.93459 g(F)=  0.307E+00 g(S)=  0.000E+00 ort = 0.493E-02 (trialstep = 0.347E+00)
 search vector abs. value=  0.151E+01
 bond charge predicted
       N       E                     dE             d eps       ncg     rms          rms(c)
DAV:   1    -0.490423863656E+04   -0.38659E-01   -0.26089E+01  3662   0.400E+00    0.950E-01
DAV:   2    -0.490429370970E+04   -0.55073E-01   -0.65769E-01  4084   0.541E-01    0.110E+00
DAV:   3    -0.490430346532E+04   -0.97556E-02   -0.65256E-02  4684   0.218E-01    0.141E+00
DAV:   4    -0.490428032011E+04    0.23145E-01   -0.98889E-02  4332   0.149E-01    0.470E-01
DAV:   5    -0.490428817023E+04   -0.78501E-02   -0.30670E-02  4604   0.115E-01    0.722E-01
DAV:   6    -0.490428610666E+04    0.20636E-02   -0.84597E-02  4700   0.123E-01    0.606E-01
DAV:   7    -0.490428239504E+04    0.37116E-02   -0.51641E-03  4492   0.846E-02    0.223E-01
DAV:   8    -0.490428305037E+04   -0.65533E-03   -0.30751E-03  4212   0.417E-02    0.185E-01
DAV:   9    -0.490428284755E+04    0.20282E-03   -0.13292E-03  4156   0.301E-02    0.102E-01
DAV:  10    -0.490428279863E+04    0.48923E-04   -0.10978E-03  4132   0.217E-02    0.637E-02
DAV:  11    -0.490428281217E+04   -0.13546E-04   -0.40252E-04  4252   0.140E-02    0.618E-02
DAV:  12    -0.490428277437E+04    0.37803E-04   -0.15672E-04  3364   0.101E-02    0.294E-02
DAV:  13    -0.490428278755E+04   -0.13184E-04   -0.11218E-04  2772   0.704E-03    0.278E-02
DAV:  14    -0.490428278343E+04    0.41231E-05   -0.69783E-05  2556   0.585E-03
  23 F= -.49538930E+04 E0= -.49536149E+04  d E =-.779072E-01
 trial-energy change:   -0.077907  1 .order   -0.077665   -0.108208   -0.047122
 step:   0.6039(harm=  0.6145)  dis= 0.05009  next Energy= -4953.910563 (dE=-0.955E-01)
 bond charge predicted
       N       E                     dE             d eps       ncg     rms          rms(c)
DAV:   1    -0.490428056429E+04    0.22233E-02   -0.14320E+01  3662   0.297E+00    0.701E-01
DAV:   2    -0.490431072526E+04   -0.30161E-01   -0.35632E-01  4076   0.400E-01    0.806E-01
DAV:   3    -0.490431634371E+04   -0.56184E-02   -0.21270E-01  4660   0.159E-01    0.108E+00
DAV:   4    -0.490430343362E+04    0.12910E-01   -0.46716E-02  4316   0.112E-01    0.371E-01
DAV:   5    -0.490430735256E+04   -0.39189E-02   -0.20472E-02  4604   0.843E-02    0.522E-01
DAV:   6    -0.490430705484E+04    0.29771E-03   -0.46755E-02  4652   0.917E-02    0.483E-01
DAV:   7    -0.490430451548E+04    0.25394E-02   -0.36626E-03  4484   0.668E-02    0.165E-01
DAV:   8    -0.490430497534E+04   -0.45986E-03   -0.20969E-03  4180   0.319E-02    0.133E-01
DAV:   9    -0.490430488076E+04    0.94580E-04   -0.85076E-04  4108   0.229E-02    0.833E-02
DAV:  10    -0.490430483660E+04    0.44155E-04   -0.60889E-04  4108   0.165E-02    0.487E-02
DAV:  11    -0.490430484255E+04   -0.59486E-05   -0.20256E-04  3892   0.105E-02    0.411E-02
DAV:  12    -0.490430482890E+04    0.13646E-04   -0.77520E-05  2636   0.753E-03    0.241E-02
DAV:  13    -0.490430483330E+04   -0.43982E-05   -0.68108E-05  2436   0.524E-03
  24 F= -.49539113E+04 E0= -.49536332E+04  d E =-.962329E-01
 curvature:  -1.48 expect dE=-0.378E+00 dE for cont linesearch -0.306E-04
 trial: gam= 0.80173 g(F)=  0.255E+00 g(S)=  0.000E+00 ort = 0.558E-02 (trialstep = 0.398E+00)
 search vector abs. value=  0.123E+01
 bond charge predicted
       N       E                     dE             d eps       ncg     rms          rms(c)
DAV:   1    -0.490432657655E+04   -0.21748E-01   -0.28825E+01  3662   0.422E+00    0.101E+00
DAV:   2    -0.490438628640E+04   -0.59710E-01   -0.66902E-01  3988   0.580E-01    0.100E+00
DAV:   3    -0.490440613031E+04   -0.19844E-01   -0.25105E-01  4708   0.255E-01    0.174E+00
DAV:   4    -0.490437262845E+04    0.33502E-01   -0.11394E-01  4388   0.181E-01    0.586E-01
DAV:   5    -0.490438173270E+04   -0.91043E-02   -0.39913E-02  4540   0.129E-01    0.741E-01
DAV:   6    -0.490438181033E+04   -0.77630E-04   -0.79700E-02  4500   0.135E-01    0.584E-01
DAV:   7    -0.490437675023E+04    0.50601E-02   -0.33479E-02  4236   0.919E-02    0.180E-01
DAV:   8    -0.490437729649E+04   -0.54627E-03   -0.47902E-03  4252   0.451E-02    0.201E-01
DAV:   9    -0.490437696334E+04    0.33315E-03   -0.21847E-03  4156   0.313E-02    0.112E-01
DAV:  10    -0.490437694602E+04    0.17329E-04   -0.10340E-03  4252   0.228E-02    0.808E-02
DAV:  11    -0.490437692493E+04    0.21089E-04   -0.77885E-04  4236   0.148E-02    0.596E-02
DAV:  12    -0.490437690614E+04    0.18784E-04   -0.25461E-04  3796   0.101E-02    0.344E-02
DAV:  13    -0.490437691422E+04   -0.80765E-05   -0.94856E-05  2996   0.758E-03
  25 F= -.49539787E+04 E0= -.49537001E+04  d E =-.673315E-01
 trial-energy change:   -0.067332  1 .order   -0.067184   -0.103530   -0.030838
 step:   0.5673(harm=  0.5673)  dis= 0.03201  next Energy= -4953.985065 (dE=-0.737E-01)
 bond charge predicted
       N       E                     dE             d eps       ncg     rms          rms(c)
DAV:   1    -0.490437657942E+04    0.32672E-03   -0.51910E+00  3662   0.179E+00    0.430E-01
DAV:   2    -0.490438728233E+04   -0.10703E-01   -0.11994E-01  4012   0.247E-01    0.426E-01
DAV:   3    -0.490439087122E+04   -0.35889E-02   -0.24692E-02  4700   0.106E-01    0.745E-01
DAV:   4    -0.490438480419E+04    0.60670E-02   -0.12505E-02  4300   0.769E-02    0.251E-01
DAV:   5    -0.490438651312E+04   -0.17089E-02   -0.34939E-03  4524   0.550E-02    0.317E-01
DAV:   6    -0.490438648671E+04    0.26409E-04   -0.14003E-02  4476   0.560E-02    0.254E-01
DAV:   7    -0.490438561897E+04    0.86774E-03   -0.74253E-03  4340   0.398E-02    0.766E-02
DAV:   8    -0.490438574586E+04   -0.12688E-03   -0.72435E-04  4276   0.196E-02    0.871E-02
DAV:   9    -0.490438567026E+04    0.75596E-04   -0.27805E-04  4108   0.133E-02    0.407E-02
DAV:  10    -0.490438568437E+04   -0.14107E-04   -0.16584E-04  3668   0.919E-03    0.408E-02
DAV:  11    -0.490438567221E+04    0.12157E-04   -0.13113E-04  2740   0.658E-03    0.225E-02
DAV:  12    -0.490438567242E+04   -0.21403E-06   -0.36755E-05  2340   0.405E-03
  26 F= -.49539854E+04 E0= -.49537067E+04  d E =-.740576E-01
 curvature:  -1.34 expect dE=-0.303E+00 dE for cont linesearch -0.127E-05
 trial: gam= 0.88970 g(F)=  0.225E+00 g(S)=  0.000E+00 ort = 0.108E-02 (trialstep = 0.432E+00)
 search vector abs. value=  0.120E+01
 bond charge predicted
       N       E                     dE             d eps       ncg     rms          rms(c)
DAV:   1    -0.490439436334E+04   -0.86911E-02   -0.33279E+01  3662   0.454E+00    0.107E+00
DAV:   2    -0.490446280877E+04   -0.68445E-01   -0.77910E-01  3892   0.610E-01    0.878E-01
DAV:   3    -0.490447878916E+04   -0.15980E-01   -0.17649E-01  4628   0.230E-01    0.137E+00
DAV:   4    -0.490445405337E+04    0.24736E-01   -0.11758E-01  4388   0.161E-01    0.575E-01
DAV:   5    -0.490446223428E+04   -0.81809E-02   -0.28081E-02  4676   0.136E-01    0.804E-01
DAV:   6    -0.490445929547E+04    0.29388E-02   -0.49273E-02  4268   0.147E-01    0.557E-01
DAV:   7    -0.490445629418E+04    0.30013E-02   -0.16753E-02  4212   0.941E-02    0.268E-01
DAV:   8    -0.490445638650E+04   -0.92322E-04   -0.67265E-03  4252   0.501E-02    0.185E-01
DAV:   9    -0.490445615503E+04    0.23147E-03   -0.30470E-03  4196   0.332E-02    0.113E-01
DAV:  10    -0.490445608928E+04    0.65753E-04   -0.10456E-03  4196   0.233E-02    0.697E-02
DAV:  11    -0.490445608869E+04    0.58574E-06   -0.33498E-04  4308   0.149E-02    0.604E-02
DAV:  12    -0.490445607812E+04    0.10576E-04   -0.19852E-04  3804   0.107E-02    0.465E-02
DAV:  13    -0.490445606979E+04    0.83335E-05   -0.19364E-04  2956   0.795E-03    0.299E-02
DAV:  14    -0.490445607087E+04   -0.10823E-05   -0.71617E-05  2588   0.633E-03
  27 F= -.49540514E+04 E0= -.49537719E+04  d E =-.659545E-01
 trial-energy change:   -0.065955  1 .order   -0.065786   -0.097793   -0.033778
 step:   0.6548(harm=  0.6601)  dis= 0.03766  next Energy= -4954.060077 (dE=-0.747E-01)
 bond charge predicted
       N       E                     dE             d eps       ncg     rms          rms(c)
DAV:   1    -0.490445102658E+04    0.50432E-02   -0.88417E+00  3662   0.234E+00    0.550E-01
DAV:   2    -0.490446909829E+04   -0.18072E-01   -0.20631E-01  3900   0.314E-01    0.445E-01
DAV:   3    -0.490447356642E+04   -0.44681E-02   -0.19110E-02  4628   0.117E-01    0.744E-01
DAV:   4    -0.490446670185E+04    0.68646E-02   -0.10410E-02  4444   0.841E-02    0.309E-01
DAV:   5    -0.490446891875E+04   -0.22169E-02   -0.58651E-03  4676   0.702E-02    0.406E-01
DAV:   6    -0.490446848685E+04    0.43190E-03   -0.77032E-03  4252   0.755E-02    0.322E-01
DAV:   7    -0.490446736617E+04    0.11207E-02   -0.73239E-03  4156   0.491E-02    0.136E-01
DAV:   8    -0.490446745443E+04   -0.88264E-04   -0.15954E-03  4212   0.261E-02    0.936E-02
DAV:   9    -0.490446738676E+04    0.67670E-04   -0.71945E-04  4076   0.171E-02    0.570E-02
DAV:  10    -0.490446737192E+04    0.14841E-04   -0.27683E-04  4132   0.116E-02    0.364E-02
DAV:  11    -0.490446737175E+04    0.17352E-06   -0.89333E-05  3412   0.721E-03
  28 F= -.49540604E+04 E0= -.49537805E+04  d E =-.749734E-01
 curvature:  -1.75 expect dE=-0.408E+00 dE for cont linesearch -0.413E-05
 trial: gam= 1.01175 g(F)=  0.233E+00 g(S)=  0.000E+00 ort = 0.168E-02 (trialstep = 0.391E+00)
 search vector abs. value=  0.147E+01
 bond charge predicted
       N       E                     dE             d eps       ncg     rms          rms(c)
DAV:   1    -0.490447127460E+04   -0.39027E-02   -0.33380E+01  3662   0.456E+00    0.107E+00
DAV:   2    -0.490453984720E+04   -0.68573E-01   -0.79329E-01  3868   0.613E-01    0.752E-01
DAV:   3    -0.490454535097E+04   -0.55038E-02   -0.72873E-02  4500   0.175E-01    0.969E-01
DAV:   4    -0.490453659052E+04    0.87605E-02   -0.30011E-02  4556   0.137E-01    0.655E-01
DAV:   5    -0.490454068457E+04   -0.40941E-02   -0.30328E-02  4644   0.127E-01    0.784E-01
DAV:   6    -0.490453974204E+04    0.94253E-03   -0.29242E-02  4516   0.126E-01    0.670E-01
DAV:   7    -0.490453471960E+04    0.50224E-02   -0.20033E-02  4228   0.905E-02    0.188E-01
DAV:   8    -0.490453572824E+04   -0.10086E-02   -0.31505E-03  3996   0.457E-02    0.175E-01
DAV:   9    -0.490453542522E+04    0.30302E-03   -0.18028E-03  4148   0.302E-02    0.907E-02
DAV:  10    -0.490453543338E+04   -0.81635E-05   -0.90551E-04  4260   0.229E-02    0.665E-02
DAV:  11    -0.490453540441E+04    0.28975E-04   -0.49425E-04  4204   0.147E-02    0.473E-02
DAV:  12    -0.490453540405E+04    0.35123E-06   -0.23151E-04  3332   0.101E-02    0.411E-02
DAV:  13    -0.490453539889E+04    0.51599E-05   -0.97158E-05  2684   0.716E-03
  29 F= -.49541234E+04 E0= -.49538430E+04  d E =-.630475E-01
 trial-energy change:   -0.063048  1 .order   -0.062875   -0.091698   -0.034052
 step:   0.6150(harm=  0.6213)  dis= 0.04115  next Energy= -4954.133231 (dE=-0.729E-01)
 bond charge predicted
       N       E                     dE             d eps       ncg     rms          rms(c)
DAV:   1    -0.490452761768E+04    0.77864E-02   -0.11020E+01  3662   0.262E+00    0.615E-01
DAV:   2    -0.490455031212E+04   -0.22694E-01   -0.26170E-01  3860   0.354E-01    0.445E-01
DAV:   3    -0.490455316851E+04   -0.28564E-02   -0.34575E-02  4548   0.111E-01    0.642E-01
DAV:   4    -0.490454883064E+04    0.43379E-02   -0.11192E-02  4468   0.880E-02    0.376E-01
DAV:   5    -0.490455006201E+04   -0.12314E-02   -0.10022E-02  4588   0.709E-02    0.402E-01
DAV:   6    -0.490455088378E+04   -0.82177E-03   -0.62027E-03  4540   0.754E-02    0.459E-01
DAV:   7    -0.490454834841E+04    0.25354E-02   -0.78066E-03  4236   0.568E-02    0.113E-01
DAV:   8    -0.490454886897E+04   -0.52055E-03   -0.13096E-03  4092   0.269E-02    0.111E-01
DAV:   9    -0.490454874463E+04    0.12434E-03   -0.45874E-04  4116   0.185E-02    0.533E-02
DAV:  10    -0.490454875869E+04   -0.14061E-04   -0.42573E-04  4028   0.129E-02    0.473E-02
DAV:  11    -0.490454875036E+04    0.83274E-05   -0.20202E-04  3668   0.890E-03    0.373E-02
DAV:  12    -0.490454874496E+04    0.54025E-05   -0.72575E-05  2588   0.668E-03
  30 F= -.49541339E+04 E0= -.49538530E+04  d E =-.735305E-01
 curvature:  -1.94 expect dE=-0.445E+00 dE for cont linesearch -0.196E-04
 trial: gam= 0.97455 g(F)=  0.229E+00 g(S)=  0.000E+00 ort = 0.385E-02 (trialstep = 0.392E+00)
 search vector abs. value=  0.163E+01
 bond charge predicted
       N       E                     dE             d eps       ncg     rms          rms(c)
DAV:   1    -0.490454535433E+04    0.33960E-02   -0.37975E+01  3662   0.487E+00    0.115E+00
DAV:   2    -0.490464255107E+04   -0.97197E-01   -0.10162E+00  3924   0.680E-01    0.144E+00
DAV:   3    -0.490464474083E+04   -0.21898E-02   -0.62898E-01  4500   0.292E-01    0.175E+00
DAV:   4    -0.490461756125E+04    0.27180E-01   -0.16485E-01  4252   0.191E-01    0.724E-01
DAV:   5    -0.490462113760E+04   -0.35763E-02   -0.43898E-02  4292   0.129E-01    0.633E-01
DAV:   6    -0.490462677210E+04   -0.56345E-02   -0.30406E-02  4548   0.143E-01    0.748E-01
DAV:   7    -0.490461899170E+04    0.77804E-02   -0.43972E-02  4196   0.108E-01    0.292E-01
DAV:   8    -0.490461940269E+04   -0.41099E-03   -0.68529E-03  4124   0.609E-02    0.225E-01
DAV:   9    -0.490461901872E+04    0.38397E-03   -0.17372E-03  4092   0.357E-02    0.972E-02
DAV:  10    -0.490461915453E+04   -0.13581E-03   -0.78380E-04  4348   0.246E-02    0.115E-01
DAV:  11    -0.490461904401E+04    0.11051E-03   -0.56682E-04  4236   0.182E-02    0.591E-02
DAV:  12    -0.490461904348E+04    0.53784E-06   -0.26796E-04  3892   0.114E-02    0.337E-02
DAV:  13    -0.490461904401E+04   -0.53289E-06   -0.14487E-04  3044   0.753E-03    0.230E-02
DAV:  14    -0.490461905511E+04   -0.11099E-04   -0.11698E-04  2708   0.675E-03    0.214E-02
DAV:  15    -0.490461905553E+04   -0.41880E-06   -0.60020E-05  2540   0.495E-03
  31 F= -.49542007E+04 E0= -.49539196E+04  d E =-.667708E-01
 trial-energy change:   -0.066771  1 .order   -0.066558   -0.091390   -0.041726
 step:   0.7065(harm=  0.7211)  dis= 0.05554  next Energy= -4954.217534 (dE=-0.836E-01)
 bond charge predicted
       N       E                     dE             d eps       ncg     rms          rms(c)
DAV:   1    -0.490459247713E+04    0.26578E-01   -0.24484E+01  3662   0.391E+00    0.921E-01
DAV:   2    -0.490465494178E+04   -0.62465E-01   -0.63535E-01  3900   0.545E-01    0.118E+00
DAV:   3    -0.490465671837E+04   -0.17766E-02   -0.40560E-01  4444   0.235E-01    0.143E+00
DAV:   4    -0.490463848611E+04    0.18232E-01   -0.10083E-01  4252   0.154E-01    0.576E-01
DAV:   5    -0.490464117228E+04   -0.26862E-02   -0.25563E-02  4300   0.104E-01    0.512E-01
DAV:   6    -0.490464450978E+04   -0.33375E-02   -0.23006E-02  4500   0.114E-01    0.589E-01
DAV:   7    -0.490463980431E+04    0.47055E-02   -0.24617E-02  4148   0.869E-02    0.241E-01
DAV:   8    -0.490463998015E+04   -0.17584E-03   -0.40622E-03  4132   0.485E-02    0.172E-01
DAV:   9    -0.490463978706E+04    0.19309E-03   -0.10562E-03  4108   0.279E-02    0.797E-02
DAV:  10    -0.490463986536E+04   -0.78302E-04   -0.54597E-04  4372   0.196E-02    0.941E-02
DAV:  11    -0.490463978649E+04    0.78864E-04   -0.38390E-04  4164   0.147E-02    0.449E-02
DAV:  12    -0.490463979315E+04   -0.66527E-05   -0.16691E-04  3564   0.911E-03    0.291E-02
DAV:  13    -0.490463979208E+04    0.10643E-05   -0.10165E-04  2668   0.622E-03    0.185E-02
DAV:  14    -0.490463980066E+04   -0.85831E-05   -0.80274E-05  2620   0.550E-03
  32 F= -.49542186E+04 E0= -.49539371E+04  d E =-.847262E-01
 curvature:  -2.52 expect dE=-0.712E+00 dE for cont linesearch -0.516E-04
 trial: gam= 1.24475 g(F)=  0.283E+00 g(S)=  0.000E+00 ort = 0.578E-02 (trialstep = 0.263E+00)
 search vector abs. value=  0.282E+01
 bond charge predicted
       N       E                     dE             d eps       ncg     rms          rms(c)
DAV:   1    -0.490464697813E+04   -0.71860E-02   -0.29544E+01  3662   0.429E+00    0.978E-01
DAV:   2    -0.490471016391E+04   -0.63186E-01   -0.71364E-01  3804   0.575E-01    0.690E-01
DAV:   3    -0.490471695677E+04   -0.67929E-02   -0.77840E-02  4476   0.183E-01    0.986E-01
DAV:   4    -0.490470661262E+04    0.10344E-01   -0.61848E-02  4484   0.143E-01    0.619E-01
DAV:   5    -0.490470880367E+04   -0.21911E-02   -0.25293E-02  4476   0.108E-01    0.586E-01
DAV:   6    -0.490471059254E+04   -0.17889E-02   -0.25315E-02  4380   0.124E-01    0.598E-01
DAV:   7    -0.490470588945E+04    0.47031E-02   -0.33800E-02  4156   0.897E-02    0.249E-01
DAV:   8    -0.490470608549E+04   -0.19603E-03   -0.38008E-03  4164   0.416E-02    0.134E-01
DAV:   9    -0.490470604780E+04    0.37684E-04   -0.86585E-04  4092   0.273E-02    0.847E-02
DAV:  10    -0.490470604550E+04    0.22984E-05   -0.10608E-03  4348   0.205E-02    0.807E-02
DAV:  11    -0.490470600288E+04    0.42620E-04   -0.47595E-04  4116   0.137E-02    0.466E-02
DAV:  12    -0.490470600058E+04    0.23039E-05   -0.13549E-04  3396   0.891E-03    0.327E-02
DAV:  13    -0.490470600608E+04   -0.55037E-05   -0.67270E-05  2812   0.644E-03
  33 F= -.49542822E+04 E0= -.49540001E+04  d E =-.635726E-01
 trial-energy change:   -0.063573  1 .order   -0.063285   -0.076248   -0.050322
 step:   0.6959(harm=  0.7723)  dis= 0.07887  next Energy= -4954.325006 (dE=-0.106E+00)
 bond charge predicted
       N       E                     dE             d eps       ncg     rms          rms(c)
DAV:   1    -0.490459629390E+04    0.10971E+00   -0.80378E+01  3662   0.708E+00    0.163E+00
DAV:   2    -0.490477079917E+04   -0.17451E+00   -0.19608E+00  3836   0.951E-01    0.117E+00
DAV:   3    -0.490479402674E+04   -0.23228E-01   -0.26661E-01  4508   0.318E-01    0.180E+00
DAV:   4    -0.490475880139E+04    0.35225E-01   -0.20731E-02  4452   0.243E-01    0.985E-01
DAV:   5    -0.490476580771E+04   -0.70063E-02   -0.11315E-01  4468   0.181E-01    0.945E-01
DAV:   6    -0.490477202112E+04   -0.62134E-02   -0.94832E-02  4396   0.208E-01    0.977E-01
DAV:   7    -0.490475863062E+04    0.13391E-01   -0.95590E-02  4284   0.153E-01    0.417E-01
DAV:   8    -0.490475895081E+04   -0.32019E-03   -0.92168E-03  4164   0.705E-02    0.228E-01
DAV:   9    -0.490475888269E+04    0.68125E-04   -0.25759E-03  4052   0.469E-02    0.153E-01
DAV:  10    -0.490475880643E+04    0.76259E-04   -0.31612E-03  4212   0.354E-02    0.127E-01
DAV:  11    -0.490475871125E+04    0.95178E-04   -0.11191E-03  4156   0.236E-02    0.681E-02
DAV:  12    -0.490475870433E+04    0.69140E-05   -0.42409E-04  4188   0.149E-02    0.403E-02
DAV:  13    -0.490475872110E+04   -0.16769E-04   -0.19399E-04  3572   0.977E-03    0.333E-02
DAV:  14    -0.490475875058E+04   -0.29479E-04   -0.10404E-04  3260   0.881E-03    0.438E-02
DAV:  15    -0.490475874090E+04    0.96841E-05   -0.63703E-05  2660   0.663E-03
  34 F= -.49543307E+04 E0= -.49540478E+04  d E =-.112088E+00
 curvature:  -3.67 expect dE=-0.107E+01 dE for cont linesearch -0.122E-02
 trial: gam= 0.94241 g(F)=  0.292E+00 g(S)=  0.000E+00 ort = 0.306E-01 (trialstep = 0.345E+00)
 search vector abs. value=  0.286E+01
 bond charge predicted
       N       E                     dE             d eps       ncg     rms          rms(c)
DAV:   1    -0.490474176454E+04    0.16986E-01   -0.50667E+01  3662   0.562E+00    0.128E+00
DAV:   2    -0.490485196340E+04   -0.11020E+00   -0.12527E+00  3860   0.761E-01    0.912E-01
DAV:   3    -0.490485475856E+04   -0.27952E-02   -0.10013E-01  4396   0.220E-01    0.976E-01
DAV:   4    -0.490484655520E+04    0.82034E-02   -0.12412E-01  4284   0.169E-01    0.767E-01
DAV:   5    -0.490484983821E+04   -0.32830E-02   -0.65476E-02  4820   0.146E-01    0.885E-01
DAV:   6    -0.490485070639E+04   -0.86818E-03   -0.39646E-02  4452   0.163E-01    0.742E-01
DAV:   7    -0.490484358988E+04    0.71165E-02   -0.22743E-02  4180   0.120E-01    0.287E-01
DAV:   8    -0.490484428792E+04   -0.69804E-03   -0.52299E-03  4180   0.541E-02    0.200E-01
DAV:   9    -0.490484399328E+04    0.29464E-03   -0.22285E-03  4164   0.360E-02    0.122E-01
DAV:  10    -0.490484398057E+04    0.12713E-04   -0.11794E-03  4228   0.250E-02    0.979E-02
DAV:  11    -0.490484394742E+04    0.33149E-04   -0.87777E-04  4276   0.185E-02    0.677E-02
DAV:  12    -0.490484393321E+04    0.14211E-04   -0.42272E-04  4108   0.123E-02    0.420E-02
DAV:  13    -0.490484394443E+04   -0.11217E-04   -0.91727E-05  3092   0.814E-03    0.376E-02
DAV:  14    -0.490484395172E+04   -0.72914E-05   -0.61194E-05  2924   0.702E-03
  35 F= -.49544129E+04 E0= -.49541294E+04  d E =-.821885E-01
 trial-energy change:   -0.082189  1 .order   -0.082002   -0.110594   -0.053411
 step:   0.6561(harm=  0.6676)  dis= 0.08259  next Energy= -4954.437090 (dE=-0.106E+00)
 bond charge predicted
       N       E                     dE             d eps       ncg     rms          rms(c)
DAV:   1    -0.490478913585E+04    0.54809E-01   -0.41098E+01  3662   0.507E+00    0.116E+00
DAV:   2    -0.490487830614E+04   -0.89170E-01   -0.10132E+00  3868   0.686E-01    0.824E-01
DAV:   3    -0.490488113845E+04   -0.28323E-02   -0.76016E-02  4396   0.206E-01    0.915E-01
DAV:   4    -0.490487428162E+04    0.68568E-02   -0.96404E-02  4324   0.159E-01    0.730E-01
DAV:   5    -0.490487575721E+04   -0.14756E-02   -0.46484E-02  4692   0.130E-01    0.753E-01
DAV:   6    -0.490487810628E+04   -0.23491E-02   -0.35531E-02  4428   0.148E-01    0.695E-01
DAV:   7    -0.490487154469E+04    0.65616E-02   -0.11987E-02  4236   0.112E-01    0.271E-01
DAV:   8    -0.490487209064E+04   -0.54595E-03   -0.48551E-03  4212   0.497E-02    0.174E-01
DAV:   9    -0.490487189160E+04    0.19904E-03   -0.18828E-03  4132   0.324E-02    0.104E-01
DAV:  10    -0.490487189816E+04   -0.65574E-05   -0.91318E-04  4236   0.226E-02    0.928E-02
DAV:  11    -0.490487186363E+04    0.34531E-04   -0.75969E-04  4300   0.170E-02    0.651E-02
DAV:  12    -0.490487185247E+04    0.11153E-04   -0.33414E-04  4020   0.115E-02    0.399E-02
DAV:  13    -0.490487186148E+04   -0.90026E-05   -0.61870E-05  3012   0.753E-03
  36 F= -.49544382E+04 E0= -.49541545E+04  d E =-.107455E+00
 curvature:  -2.97 expect dE=-0.113E+01 dE for cont linesearch -0.229E-04
 trial: gam= 1.45746 g(F)=  0.380E+00 g(S)=  0.000E+00 ort = 0.469E-02 (trialstep = 0.180E+00)
 search vector abs. value=  0.646E+01
 bond charge predicted
       N       E                     dE             d eps       ncg     rms          rms(c)
DAV:   1    -0.490487322233E+04   -0.13699E-02   -0.30372E+01  3662   0.434E+00    0.978E-01
DAV:   2    -0.490493950607E+04   -0.66284E-01   -0.73317E-01  3844   0.581E-01    0.733E-01
DAV:   3    -0.490494219000E+04   -0.26839E-02   -0.66914E-02  4492   0.186E-01    0.867E-01
DAV:   4    -0.490493561780E+04    0.65722E-02   -0.49008E-02  4452   0.139E-01    0.634E-01
DAV:   5    -0.490493636632E+04   -0.74852E-03   -0.11971E-02  4668   0.103E-01    0.592E-01
DAV:   6    -0.490493999865E+04   -0.36323E-02   -0.31243E-02  4500   0.131E-01    0.636E-01
DAV:   7    -0.490493412311E+04    0.58755E-02   -0.14555E-02  4172   0.102E-01    0.239E-01
DAV:   8    -0.490493450278E+04   -0.37967E-03   -0.45455E-03  4164   0.446E-02    0.127E-01
DAV:   9    -0.490493448846E+04    0.14322E-04   -0.13958E-03  4084   0.270E-02    0.982E-02
DAV:  10    -0.490493443798E+04    0.50476E-04   -0.37404E-04  4308   0.194E-02    0.681E-02
DAV:  11    -0.490493443798E+04    0.58208E-09   -0.28374E-04  4260   0.142E-02    0.522E-02
DAV:  12    -0.490493442433E+04    0.13655E-04   -0.21864E-04  3580   0.912E-03    0.284E-02
DAV:  13    -0.490493443471E+04   -0.10385E-04   -0.82096E-05  2764   0.596E-03    0.221E-02
DAV:  14    -0.490493445079E+04   -0.16073E-04   -0.94436E-05  2732   0.546E-03    0.312E-02
DAV:  15    -0.490493445187E+04   -0.10849E-05   -0.32309E-05  2596   0.483E-03
  37 F= -.49545000E+04 E0= -.49542160E+04  d E =-.618393E-01
 trial-energy change:   -0.061839  1 .order   -0.061515   -0.069659   -0.053371
 step:   0.6018(harm=  0.7702)  dis= 0.12406  next Energy= -4954.566661 (dE=-0.128E+00)
 bond charge predicted
       N       E                     dE             d eps       ncg     rms          rms(c)
DAV:   1    -0.490467180992E+04    0.26264E+00   -0.16623E+02  3662   0.102E+01    0.231E+00
DAV:   2    -0.490504577402E+04   -0.37396E+00   -0.41376E+00  3868   0.137E+00    0.174E+00
DAV:   3    -0.490506953081E+04   -0.23757E-01   -0.24734E-01  4564   0.451E-01    0.228E+00
DAV:   4    -0.490501962589E+04    0.49905E-01   -0.72060E-02  4572   0.329E-01    0.137E+00
DAV:   5    -0.490502910240E+04   -0.94765E-02   -0.23266E-01  4612   0.240E-01    0.138E+00
DAV:   6    -0.490504483732E+04   -0.15735E-01   -0.15069E-01  4476   0.309E-01    0.142E+00
DAV:   7    -0.490501542076E+04    0.29417E-01   -0.10161E-01  4220   0.230E-01    0.548E-01
DAV:   8    -0.490501712174E+04   -0.17010E-02   -0.20662E-02  4212   0.103E-01    0.314E-01
DAV:   9    -0.490501661368E+04    0.50805E-03   -0.10641E-02  4052   0.650E-02    0.182E-01
DAV:  10    -0.490501663620E+04   -0.22514E-04   -0.30023E-03  4420   0.450E-02    0.150E-01
DAV:  11    -0.490501651878E+04    0.11741E-03   -0.63838E-04  4204   0.297E-02    0.103E-01
DAV:  12    -0.490501653104E+04   -0.12255E-04   -0.59065E-04  4236   0.197E-02    0.908E-02
DAV:  13    -0.490501649862E+04    0.32418E-04   -0.43995E-04  3980   0.144E-02    0.486E-02
DAV:  14    -0.490501658326E+04   -0.84639E-04   -0.33465E-04  4052   0.131E-02    0.637E-02
DAV:  15    -0.490501656823E+04    0.15036E-04   -0.13578E-04  3636   0.108E-02    0.275E-02
DAV:  16    -0.490501659069E+04   -0.22462E-04   -0.37890E-05  2748   0.637E-03    0.131E-02
DAV:  17    -0.490501660453E+04   -0.13842E-04   -0.16237E-05  2612   0.322E-03    0.702E-03
DAV:  18    -0.490501662290E+04   -0.18370E-04   -0.51038E-06  2596   0.215E-03    0.525E-03
DAV:  19    -0.490501665194E+04   -0.29038E-04   -0.68857E-06  2620   0.214E-03    0.459E-03
DAV:  20    -0.490501666825E+04   -0.16316E-04   -0.34604E-06  2604   0.141E-03    0.368E-03
DAV:  21    -0.490501668017E+04   -0.11918E-04   -0.18241E-06  2628   0.104E-03    0.256E-03
DAV:  22    -0.490501669113E+04   -0.10957E-04   -0.25586E-06  2596   0.119E-03    0.137E-03
DAV:  23    -0.490501669560E+04   -0.44661E-05   -0.92506E-07  2564   0.647E-04
  38 F= -.49545806E+04 E0= -.49542959E+04  d E =-.142453E+00
 curvature:  -5.91 expect dE=-0.208E+01 dE for cont linesearch -0.642E-02
 ZBRENT: extrapolating
 opt :   0.7680  next Energy= -4954.587582 (dE=-0.149E+00)
 bond charge predicted
       N       E                     dE             d eps       ncg     rms          rms(c)
DAV:   1    -0.490497212477E+04    0.44566E-01   -0.25835E+01  3662   0.400E+00    0.904E-01
DAV:   2    -0.490502804171E+04   -0.55917E-01   -0.62013E-01  3860   0.536E-01    0.684E-01
DAV:   3    -0.490503315087E+04   -0.51092E-02   -0.98026E-02  4556   0.180E-01    0.963E-01
DAV:   4    -0.490502382090E+04    0.93300E-02   -0.11049E-01  4468   0.133E-01    0.559E-01
DAV:   5    -0.490502579533E+04   -0.19744E-02   -0.68030E-03  4588   0.939E-02    0.538E-01
DAV:   6    -0.490502844100E+04   -0.26457E-02   -0.30115E-02  4420   0.124E-01    0.588E-01
DAV:   7    -0.490502385944E+04    0.45816E-02   -0.21450E-02  4180   0.931E-02    0.257E-01
DAV:   8    -0.490502395877E+04   -0.99331E-04   -0.74071E-03  4180   0.439E-02    0.114E-01
DAV:   9    -0.490502398004E+04   -0.21271E-04   -0.11350E-03  4068   0.253E-02    0.863E-02
DAV:  10    -0.490502395115E+04    0.28896E-04   -0.23523E-04  4380   0.185E-02    0.711E-02
DAV:  11    -0.490502393614E+04    0.15002E-04   -0.35804E-04  4164   0.135E-02    0.569E-02
DAV:  12    -0.490502391309E+04    0.23053E-04   -0.23450E-04  3508   0.872E-03    0.277E-02
DAV:  13    -0.490502392143E+04   -0.83410E-05   -0.56570E-05  2748   0.604E-03
  39 F= -.49545872E+04 E0= -.49543022E+04  d E =-.149053E+00
 curvature:  -6.41 expect dE=-0.325E+01 dE for cont linesearch -0.298E-04
 trial: gam= 1.17039 g(F)=  0.507E+00 g(S)=  0.000E+00 ort =-0.548E-02 (trialstep = 0.206E+00)
 search vector abs. value=  0.935E+01
 bond charge predicted
       N       E                     dE             d eps       ncg     rms          rms(c)
DAV:   1    -0.490499406001E+04    0.29853E-01   -0.55872E+01  3662   0.591E+00    0.133E+00
DAV:   2    -0.490511978087E+04   -0.12572E+00   -0.13855E+00  3844   0.801E-01    0.109E+00
DAV:   3    -0.490513773342E+04   -0.17953E-01   -0.22405E-01  4548   0.313E-01    0.154E+00
DAV:   4    -0.490510759332E+04    0.30140E-01   -0.11318E-01  4356   0.227E-01    0.815E-01
DAV:   5    -0.490511285744E+04   -0.52641E-02   -0.74366E-02  4508   0.155E-01    0.882E-01
DAV:   6    -0.490511414822E+04   -0.12908E-02   -0.64298E-02  4404   0.170E-01    0.650E-01
DAV:   7    -0.490510881788E+04    0.53303E-02   -0.63775E-02  4204   0.140E-01    0.363E-01
DAV:   8    -0.490510829934E+04    0.51853E-03   -0.65839E-03  4148   0.608E-02    0.188E-01
DAV:   9    -0.490510836073E+04   -0.61391E-04   -0.10482E-03  4148   0.360E-02    0.153E-01
DAV:  10    -0.490510821990E+04    0.14084E-03   -0.57513E-04  4324   0.287E-02    0.100E-01
DAV:  11    -0.490510818186E+04    0.38033E-04   -0.38069E-04  4068   0.201E-02    0.563E-02
DAV:  12    -0.490510818928E+04   -0.74141E-05   -0.23766E-04  4108   0.129E-02    0.415E-02
DAV:  13    -0.490510820102E+04   -0.11743E-04   -0.20681E-04  3252   0.884E-03    0.420E-02
DAV:  14    -0.490510820522E+04   -0.41964E-05   -0.11583E-04  2812   0.750E-03    0.301E-02
DAV:  15    -0.490510822053E+04   -0.15316E-04   -0.29986E-05  2684   0.656E-03    0.163E-02
DAV:  16    -0.490510822841E+04   -0.78785E-05   -0.26662E-05  2636   0.432E-03
  40 F= -.49546720E+04 E0= -.49543869E+04  d E =-.847570E-01
 trial-energy change:   -0.084757  1 .order   -0.084368   -0.102961   -0.065776
 step:   0.5201(harm=  0.5699)  dis= 0.13973  next Energy= -4954.723581 (dE=-0.136E+00)
 bond charge predicted
       N       E                     dE             d eps       ncg     rms          rms(c)
DAV:   1    -0.490489170732E+04    0.21651E+00   -0.13014E+02  3662   0.901E+00    0.205E+00
DAV:   2    -0.490518931510E+04   -0.29761E+00   -0.32521E+00  3860   0.123E+00    0.168E+00
DAV:   3    -0.490523425926E+04   -0.44944E-01   -0.62275E-01  4676   0.486E-01    0.233E+00
DAV:   4    -0.490516456310E+04    0.69696E-01   -0.41658E-01  4412   0.351E-01    0.131E+00
DAV:   5    -0.490516818588E+04   -0.36228E-02   -0.15715E-01  4564   0.233E-01    0.119E+00
DAV:   6    -0.490517167200E+04   -0.34861E-02   -0.10923E-01  4316   0.253E-01    0.812E-01
DAV:   7    -0.490516451771E+04    0.71543E-02   -0.13914E-01  4188   0.196E-01    0.576E-01
DAV:   8    -0.490516221161E+04    0.23061E-02   -0.11872E-02  4244   0.936E-02    0.317E-01
DAV:   9    -0.490516225120E+04   -0.39596E-04   -0.93168E-03  4188   0.586E-02    0.239E-01
DAV:  10    -0.490516192990E+04    0.32130E-03   -0.37921E-03  4292   0.458E-02    0.144E-01
DAV:  11    -0.490516184759E+04    0.82313E-04   -0.10251E-03  4116   0.315E-02    0.808E-02
DAV:  12    -0.490516189722E+04   -0.49637E-04   -0.39464E-04  4196   0.196E-02    0.802E-02
DAV:  13    -0.490516188215E+04    0.15072E-04   -0.14035E-04  4172   0.131E-02    0.580E-02
DAV:  14    -0.490516190655E+04   -0.24398E-04   -0.14218E-04  3540   0.118E-02    0.330E-02
DAV:  15    -0.490516195248E+04   -0.45933E-04   -0.98049E-05  3660   0.909E-03    0.166E-02
DAV:  16    -0.490516197402E+04   -0.21534E-04   -0.29778E-05  2788   0.483E-03    0.822E-03
DAV:  17    -0.490516199415E+04   -0.20132E-04   -0.76682E-06  2596   0.249E-03    0.625E-03
DAV:  18    -0.490516200985E+04   -0.15701E-04   -0.46885E-06  2596   0.188E-03    0.613E-03
DAV:  19    -0.490516203646E+04   -0.26608E-04   -0.59070E-06  2596   0.180E-03    0.449E-03
DAV:  20    -0.490516205142E+04   -0.14960E-04   -0.34864E-06  2636   0.132E-03    0.378E-03
DAV:  21    -0.490516206182E+04   -0.10401E-04   -0.20268E-06  2588   0.995E-04    0.271E-03
DAV:  22    -0.490516206946E+04   -0.76375E-05   -0.14880E-06  2596   0.960E-04
  41 F= -.49547264E+04 E0= -.49544409E+04  d E =-.139202E+00
 curvature:  -5.22 expect dE=-0.223E+01 dE for cont linesearch -0.188E-03
 trial: gam= 0.65278 g(F)=  0.427E+00 g(S)=  0.000E+00 ort = 0.184E-01 (trialstep = 0.269E+00)
 search vector abs. value=  0.443E+01
 bond charge predicted
       N       E                     dE             d eps       ncg     rms          rms(c)
DAV:   1    -0.490516915446E+04   -0.70926E-02   -0.42697E+01  3662   0.522E+00    0.118E+00
DAV:   2    -0.490527582929E+04   -0.10667E+00   -0.11325E+00  3868   0.727E-01    0.134E+00
DAV:   3    -0.490528734091E+04   -0.11512E-01   -0.43501E-01  4548   0.320E-01    0.183E+00
DAV:   4    -0.490525132613E+04    0.36015E-01   -0.13680E-01  4220   0.208E-01    0.666E-01
DAV:   5    -0.490525940344E+04   -0.80773E-02   -0.49083E-02  4516   0.139E-01    0.756E-01
DAV:   6    -0.490526295512E+04   -0.35517E-02   -0.82508E-02  4492   0.161E-01    0.766E-01
DAV:   7    -0.490525461359E+04    0.83415E-02   -0.72647E-02  4276   0.128E-01    0.242E-01
DAV:   8    -0.490525560500E+04   -0.99142E-03   -0.60019E-03  4236   0.590E-02    0.194E-01
DAV:   9    -0.490525530345E+04    0.30155E-03   -0.12438E-03  4140   0.360E-02    0.108E-01
DAV:  10    -0.490525540081E+04   -0.97358E-04   -0.78383E-04  4252   0.260E-02    0.125E-01
DAV:  11    -0.490525525433E+04    0.14648E-03   -0.55330E-04  4236   0.184E-02    0.519E-02
DAV:  12    -0.490525529346E+04   -0.39124E-04   -0.15232E-04  3940   0.120E-02    0.468E-02
DAV:  13    -0.490525528646E+04    0.70011E-05   -0.80496E-05  3244   0.883E-03
  42 F= -.49548207E+04 E0= -.49545344E+04  d E =-.942682E-01
 trial-energy change:   -0.094268  1 .order   -0.093547   -0.117814   -0.069279
 step:   0.5894(harm=  0.6522)  dis= 0.11786  next Energy= -4954.863274 (dE=-0.137E+00)
 bond charge predicted
       N       E                     dE             d eps       ncg     rms          rms(c)
DAV:   1    -0.490517472262E+04    0.80571E-01   -0.60872E+01  3662   0.624E+00    0.141E+00
DAV:   2    -0.490532710053E+04   -0.15238E+00   -0.16347E+00  3876   0.870E-01    0.156E+00
DAV:   3    -0.490534448399E+04   -0.17383E-01   -0.62088E-01  4516   0.380E-01    0.215E+00
DAV:   4    -0.490529328307E+04    0.51201E-01   -0.22340E-01  4244   0.248E-01    0.780E-01
DAV:   5    -0.490530675959E+04   -0.13477E-01   -0.68142E-02  4628   0.167E-01    0.100E+00
DAV:   6    -0.490530773329E+04   -0.97369E-03   -0.10022E-01  4452   0.192E-01    0.845E-01
DAV:   7    -0.490529835407E+04    0.93792E-02   -0.84182E-02  4236   0.143E-01    0.273E-01
DAV:   8    -0.490529948647E+04   -0.11324E-02   -0.61968E-03  4132   0.686E-02    0.219E-01
DAV:   9    -0.490529915644E+04    0.33003E-03   -0.23107E-03  4132   0.441E-02    0.140E-01
DAV:  10    -0.490529919487E+04   -0.38426E-04   -0.11134E-03  4228   0.310E-02    0.121E-01
DAV:  11    -0.490529910489E+04    0.89975E-04   -0.75034E-04  4148   0.218E-02    0.704E-02
DAV:  12    -0.490529913551E+04   -0.30616E-04   -0.17471E-04  4076   0.141E-02    0.585E-02
DAV:  13    -0.490529913636E+04   -0.84715E-06   -0.11078E-04  3636   0.108E-02    0.389E-02
DAV:  14    -0.490529916850E+04   -0.32145E-04   -0.99724E-05  3188   0.821E-03    0.285E-02
DAV:  15    -0.490529919502E+04   -0.26522E-04   -0.11817E-04  3132   0.669E-03    0.206E-02
DAV:  16    -0.490529920775E+04   -0.12722E-04   -0.39891E-05  2668   0.445E-03    0.675E-03
DAV:  17    -0.490529922368E+04   -0.15936E-04   -0.73884E-06  2612   0.229E-03    0.588E-03
DAV:  18    -0.490529923520E+04   -0.11518E-04   -0.38172E-06  2580   0.159E-03    0.438E-03
[...]
DAV:   4    -0.490610041777E+04    0.27142E-01   -0.71552E-02  4244   0.211E-01    0.817E-01
DAV:   5    -0.490610158627E+04   -0.11685E-02   -0.66657E-02  4404   0.131E-01    0.615E-01
DAV:   6    -0.490611067039E+04   -0.90841E-02   -0.76987E-02  4500   0.154E-01    0.905E-01
DAV:   7    -0.490609929144E+04    0.11379E-01   -0.63044E-02  4404   0.125E-01    0.278E-01
DAV:   8    -0.490610109047E+04   -0.17990E-02   -0.76868E-03  4204   0.600E-02    0.222E-01
DAV:   9    -0.490610055343E+04    0.53704E-03   -0.29488E-03  3932   0.392E-02    0.921E-02
DAV:  10    -0.490610062301E+04   -0.69582E-04   -0.68643E-04  4044   0.244E-02    0.763E-02
DAV:  11    -0.490610060686E+04    0.16153E-04   -0.19658E-04  4172   0.171E-02    0.659E-02
DAV:  12    -0.490610057888E+04    0.27984E-04   -0.11519E-04  3540   0.115E-02    0.428E-02
DAV:  13    -0.490610058233E+04   -0.34534E-05   -0.98986E-05  2980   0.801E-03
  58 F= -.49557132E+04 E0= -.49554252E+04  d E =-.802362E-01
 trial-energy change:   -0.080236  1 .order   -0.079398   -0.106285   -0.052511
 step:   0.5969(harm=  0.6434)  dis= 0.06627  next Energy= -4955.735574 (dE=-0.103E+00)
 bond charge predicted
       N       E                     dE             d eps       ncg     rms          rms(c)
DAV:   1    -0.490605710136E+04    0.43478E-01   -0.31660E+01  3662   0.451E+00    0.104E+00
DAV:   2    -0.490613577914E+04   -0.78678E-01   -0.86545E-01  3844   0.621E-01    0.115E+00
DAV:   3    -0.490613934068E+04   -0.35615E-02   -0.25075E-01  4548   0.263E-01    0.138E+00
DAV:   4    -0.490612037892E+04    0.18962E-01   -0.10689E-01  4204   0.178E-01    0.691E-01
DAV:   5    -0.490612129780E+04   -0.91888E-03   -0.42753E-02  4372   0.109E-01    0.513E-01
DAV:   6    -0.490612737402E+04   -0.60762E-02   -0.54443E-02  4420   0.128E-01    0.758E-01
DAV:   7    -0.490611966707E+04    0.77070E-02   -0.48308E-02  4356   0.102E-01    0.227E-01
DAV:   8    -0.490612103989E+04   -0.13728E-02   -0.50551E-03  4180   0.490E-02    0.191E-01
DAV:   9    -0.490612062586E+04    0.41403E-03   -0.18335E-03  3964   0.322E-02    0.749E-02
DAV:  10    -0.490612069057E+04   -0.64714E-04   -0.47972E-04  4052   0.199E-02    0.639E-02
DAV:  11    -0.490612066712E+04    0.23454E-04   -0.21381E-04  4156   0.137E-02    0.445E-02
DAV:  12    -0.490612066025E+04    0.68657E-05   -0.89219E-05  3012   0.924E-03
  59 F= -.49557378E+04 E0= -.49554499E+04  d E =-.104838E+00
 curvature:  -2.66 expect dE=-0.613E+00 dE for cont linesearch -0.209E-03
 trial: gam= 0.62296 g(F)=  0.231E+00 g(S)=  0.000E+00 ort = 0.147E-01 (trialstep = 0.380E+00)
 search vector abs. value=  0.132E+01
 bond charge predicted
       N       E                     dE             d eps       ncg     rms          rms(c)
DAV:   1    -0.490613190397E+04   -0.11237E-01   -0.27900E+01  3662   0.428E+00    0.979E-01
DAV:   2    -0.490619844020E+04   -0.66536E-01   -0.75311E-01  3876   0.591E-01    0.108E+00
DAV:   3    -0.490620316061E+04   -0.47204E-02   -0.28162E-01  4564   0.243E-01    0.128E+00
DAV:   4    -0.490618613603E+04    0.17025E-01   -0.82001E-02  4348   0.159E-01    0.637E-01
DAV:   5    -0.490618751793E+04   -0.13819E-02   -0.41328E-02  4404   0.116E-01    0.548E-01
DAV:   6    -0.490619029221E+04   -0.27743E-02   -0.41368E-02  4284   0.119E-01    0.611E-01
DAV:   7    -0.490618599078E+04    0.43014E-02   -0.47024E-02  4292   0.855E-02    0.237E-01
DAV:   8    -0.490618649508E+04   -0.50430E-03   -0.36782E-03  4124   0.499E-02    0.161E-01
DAV:   9    -0.490618626379E+04    0.23129E-03   -0.10908E-03  3980   0.305E-02    0.834E-02
DAV:  10    -0.490618628841E+04   -0.24616E-04   -0.36375E-04  4388   0.205E-02    0.726E-02
DAV:  11    -0.490618625931E+04    0.29104E-04   -0.17472E-04  4204   0.151E-02    0.506E-02
DAV:  12    -0.490618624640E+04    0.12908E-04   -0.10709E-04  3156   0.981E-03    0.290E-02
DAV:  13    -0.490618625679E+04   -0.10396E-04   -0.37815E-05  2796   0.680E-03    0.329E-02
DAV:  14    -0.490618625495E+04    0.18454E-05   -0.30840E-05  2636   0.569E-03
  60 F= -.49558071E+04 E0= -.49555188E+04  d E =-.693443E-01
 trial-energy change:   -0.069344  1 .order   -0.069121   -0.091105   -0.047137
 step:   0.7635(harm=  0.7870)  dis= 0.04460  next Energy= -4955.831190 (dE=-0.934E-01)
 bond charge predicted
       N       E                     dE             d eps       ncg     rms          rms(c)
DAV:   1    -0.490615227206E+04    0.33985E-01   -0.28470E+01  3662   0.433E+00    0.989E-01
DAV:   2    -0.490622080722E+04   -0.68535E-01   -0.77175E-01  3868   0.600E-01    0.111E+00
DAV:   3    -0.490622449122E+04   -0.36840E-02   -0.28272E-01  4508   0.247E-01    0.128E+00
DAV:   4    -0.490620802403E+04    0.16467E-01   -0.69965E-02  4276   0.163E-01    0.663E-01
DAV:   5    -0.490620856816E+04   -0.54412E-03   -0.42674E-02  4388   0.118E-01    0.536E-01
DAV:   6    -0.490621219436E+04   -0.36262E-02   -0.47281E-02  4340   0.121E-01    0.643E-01
DAV:   7    -0.490620720528E+04    0.49891E-02   -0.51462E-02  4348   0.892E-02    0.235E-01
DAV:   8    -0.490620785374E+04   -0.64846E-03   -0.40870E-03  4188   0.511E-02    0.174E-01
DAV:   9    -0.490620754878E+04    0.30496E-03   -0.13285E-03  4020   0.312E-02    0.790E-02
DAV:  10    -0.490620758926E+04   -0.40480E-04   -0.46536E-04  4308   0.207E-02    0.697E-02
DAV:  11    -0.490620756384E+04    0.25422E-04   -0.14668E-04  4228   0.147E-02    0.507E-02
DAV:  12    -0.490620754574E+04    0.18100E-04   -0.92478E-05  2964   0.944E-03    0.221E-02
DAV:  13    -0.490620755721E+04   -0.11469E-04   -0.41103E-05  2852   0.664E-03    0.235E-02
DAV:  14    -0.490620756456E+04   -0.73573E-05   -0.29846E-05  2644   0.530E-03
  61 F= -.49558323E+04 E0= -.49555439E+04  d E =-.944685E-01
 curvature:  -2.16 expect dE=-0.619E+00 dE for cont linesearch -0.540E-04
 trial: gam= 1.23751 g(F)=  0.287E+00 g(S)=  0.000E+00 ort = 0.575E-02 (trialstep = 0.259E+00)
 search vector abs. value=  0.232E+01
 bond charge predicted
       N       E                     dE             d eps       ncg     rms          rms(c)
DAV:   1    -0.490622391427E+04   -0.16357E-01   -0.21613E+01  3662   0.380E+00    0.859E-01
DAV:   2    -0.490627060650E+04   -0.46692E-01   -0.52209E-01  3844   0.520E-01    0.759E-01
DAV:   3    -0.490627489386E+04   -0.42874E-02   -0.73066E-02  4724   0.190E-01    0.992E-01
DAV:   4    -0.490626514991E+04    0.97440E-02   -0.52279E-02  4316   0.143E-01    0.568E-01
DAV:   5    -0.490626686611E+04   -0.17162E-02   -0.26337E-02  4516   0.102E-01    0.553E-01
DAV:   6    -0.490626796056E+04   -0.10944E-02   -0.13739E-02  4292   0.105E-01    0.536E-01
DAV:   7    -0.490626486685E+04    0.30937E-02   -0.55739E-03  4252   0.755E-02    0.215E-01
DAV:   8    -0.490626511191E+04   -0.24506E-03   -0.13416E-03  4212   0.411E-02    0.104E-01
DAV:   9    -0.490626509741E+04    0.14503E-04   -0.58264E-04  4012   0.249E-02    0.730E-02
DAV:  10    -0.490626510816E+04   -0.10755E-04   -0.47802E-04  4396   0.168E-02    0.733E-02
DAV:  11    -0.490626505909E+04    0.49077E-04   -0.30059E-04  3900   0.126E-02    0.357E-02
DAV:  12    -0.490626507705E+04   -0.17962E-04   -0.11702E-04  2964   0.782E-03    0.413E-02
DAV:  13    -0.490626506283E+04    0.14222E-04   -0.60303E-05  2500   0.637E-03    0.164E-02
DAV:  14    -0.490626507439E+04   -0.11560E-04   -0.50853E-05  2676   0.498E-03    0.158E-02
DAV:  15    -0.490626507293E+04    0.14611E-05   -0.30810E-05  2444   0.342E-03
  62 F= -.49558935E+04 E0= -.49556050E+04  d E =-.612443E-01
 trial-energy change:   -0.061244  1 .order   -0.061134   -0.076357   -0.045911
 step:   0.6505(harm=  0.6505)  dis= 0.04907  next Energy= -4955.928023 (dE=-0.957E-01)
 bond charge predicted
       N       E                     dE             d eps       ncg     rms          rms(c)
DAV:   1    -0.490620020598E+04    0.64868E-01   -0.49125E+01  3662   0.573E+00    0.130E+00
DAV:   2    -0.490630814424E+04   -0.10794E+00   -0.12003E+00  3828   0.788E-01    0.117E+00
DAV:   3    -0.490631691876E+04   -0.87745E-02   -0.17232E-01  4676   0.292E-01    0.152E+00
DAV:   4    -0.490629494908E+04    0.21970E-01   -0.54974E-02  4332   0.218E-01    0.884E-01
DAV:   5    -0.490629758089E+04   -0.26318E-02   -0.60416E-02  4476   0.154E-01    0.803E-01
DAV:   6    -0.490630157704E+04   -0.39962E-02   -0.31482E-02  4420   0.158E-01    0.858E-01
DAV:   7    -0.490629336469E+04    0.82123E-02   -0.14316E-02  4252   0.115E-01    0.311E-01
DAV:   8    -0.490629422613E+04   -0.86144E-03   -0.32028E-03  4228   0.620E-02    0.164E-01
DAV:   9    -0.490629415499E+04    0.71144E-04   -0.15188E-03  4092   0.385E-02    0.112E-01
DAV:  10    -0.490629420251E+04   -0.47518E-04   -0.14844E-03  4372   0.260E-02    0.120E-01
DAV:  11    -0.490629406742E+04    0.13509E-03   -0.10149E-03  4052   0.202E-02    0.609E-02
DAV:  12    -0.490629410578E+04   -0.38361E-04   -0.21056E-04  4116   0.124E-02    0.628E-02
DAV:  13    -0.490629407035E+04    0.35429E-04   -0.10173E-04  3060   0.988E-03    0.242E-02
DAV:  14    -0.490629409580E+04   -0.25450E-04   -0.91880E-05  3028   0.761E-03    0.252E-02
DAV:  15    -0.490629409090E+04    0.49004E-05   -0.69140E-05  2628   0.549E-03
  63 F= -.49559282E+04 E0= -.49556394E+04  d E =-.959382E-01
 curvature:  -2.56 expect dE=-0.686E+00 dE for cont linesearch -0.511E-06
 trial: gam= 0.93661 g(F)=  0.267E+00 g(S)=  0.000E+00 ort =-0.680E-03 (trialstep = 0.338E+00)
 search vector abs. value=  0.230E+01
 bond charge predicted
       N       E                     dE             d eps       ncg     rms          rms(c)
DAV:   1    -0.490629860557E+04   -0.45098E-02   -0.33995E+01  3662   0.479E+00    0.108E+00
DAV:   2    -0.490637289249E+04   -0.74287E-01   -0.83751E-01  3820   0.658E-01    0.104E+00
DAV:   3    -0.490637928920E+04   -0.63967E-02   -0.11099E-01  4716   0.251E-01    0.133E+00
DAV:   4    -0.490636106155E+04    0.18228E-01   -0.20414E-01  4436   0.170E-01    0.646E-01
DAV:   5    -0.490636424447E+04   -0.31829E-02   -0.29268E-02  4516   0.136E-01    0.590E-01
DAV:   6    -0.490636804372E+04   -0.37993E-02   -0.45819E-02  4340   0.132E-01    0.748E-01
DAV:   7    -0.490636165356E+04    0.63902E-02   -0.28438E-02  4228   0.102E-01    0.308E-01
DAV:   8    -0.490636203626E+04   -0.38271E-03   -0.35965E-03  4028   0.506E-02    0.135E-01
DAV:   9    -0.490636208925E+04   -0.52992E-04   -0.74380E-04  3972   0.315E-02    0.838E-02
DAV:  10    -0.490636209303E+04   -0.37763E-05   -0.46656E-04  4188   0.225E-02    0.853E-02
DAV:  11    -0.490636203925E+04    0.53782E-04   -0.23658E-04  4188   0.157E-02    0.541E-02
DAV:  12    -0.490636204239E+04   -0.31373E-05   -0.17394E-04  3708   0.983E-03    0.438E-02
DAV:  13    -0.490636203312E+04    0.92651E-05   -0.10934E-04  2692   0.752E-03    0.274E-02
DAV:  14    -0.490636204257E+04   -0.94488E-05   -0.82390E-05  2756   0.640E-03
  64 F= -.49560010E+04 E0= -.49557114E+04  d E =-.727713E-01
 trial-energy change:   -0.072771  1 .order   -0.072505   -0.090089   -0.054920
 step:   0.8127(harm=  0.8648)  dis= 0.07044  next Energy= -4956.040374 (dE=-0.112E+00)
 bond charge predicted
       N       E                     dE             d eps       ncg     rms          rms(c)
DAV:   1    -0.490627198620E+04    0.90047E-01   -0.67328E+01  3662   0.674E+00    0.154E+00
DAV:   2    -0.490642137456E+04   -0.14939E+00   -0.16752E+00  3836   0.930E-01    0.149E+00
DAV:   3    -0.490643070094E+04   -0.93264E-02   -0.29808E-01  4692   0.359E-01    0.182E+00
DAV:   4    -0.490639654098E+04    0.34160E-01   -0.39846E-01  4436   0.239E-01    0.913E-01
DAV:   5    -0.490640309525E+04   -0.65543E-02   -0.10894E-01  4596   0.191E-01    0.889E-01
DAV:   6    -0.490641262885E+04   -0.95336E-02   -0.19062E-01  4492   0.191E-01    0.116E+00
DAV:   7    -0.490639623424E+04    0.16395E-01   -0.90480E-02  4372   0.155E-01    0.395E-01
DAV:   8    -0.490639798058E+04   -0.17463E-02   -0.70283E-03  4028   0.724E-02    0.207E-01
DAV:   9    -0.490639794195E+04    0.38633E-04   -0.15746E-03  4020   0.447E-02    0.124E-01
DAV:  10    -0.490639800937E+04   -0.67422E-04   -0.14609E-03  4308   0.325E-02    0.142E-01
DAV:  11    -0.490639783573E+04    0.17365E-03   -0.84627E-04  4300   0.228E-02    0.792E-02
DAV:  12    -0.490639785415E+04   -0.18421E-04   -0.50398E-04  4140   0.146E-02    0.622E-02
DAV:  13    -0.490639783121E+04    0.22939E-04   -0.24796E-04  3572   0.110E-02    0.352E-02
DAV:  14    -0.490639784923E+04   -0.18019E-04   -0.11274E-04  3348   0.858E-03    0.221E-02
DAV:  15    -0.490639785633E+04   -0.71038E-05   -0.58698E-05  2764   0.645E-03
  65 F= -.49560437E+04 E0= -.49557531E+04  d E =-.115519E+00
 curvature:  -3.69 expect dE=-0.109E+01 dE for cont linesearch -0.356E-03
 trial: gam= 0.98793 g(F)=  0.295E+00 g(S)=  0.000E+00 ort = 0.149E-01 (trialstep = 0.387E+00)
 search vector abs. value=  0.257E+01
 bond charge predicted
       N       E                     dE             d eps       ncg     rms          rms(c)
DAV:   1    -0.490639095354E+04    0.68957E-02   -0.48089E+01  3662   0.572E+00    0.130E+00
DAV:   2    -0.490649787321E+04   -0.10692E+00   -0.12144E+00  3844   0.798E-01    0.118E+00
DAV:   3    -0.490650943217E+04   -0.11559E-01   -0.29024E-01  4436   0.329E-01    0.162E+00
DAV:   4    -0.490647933767E+04    0.30094E-01   -0.12262E-01  4196   0.230E-01    0.802E-01
DAV:   5    -0.490648691119E+04   -0.75735E-02   -0.11881E-01  4636   0.168E-01    0.830E-01
DAV:   6    -0.490649077421E+04   -0.38630E-02   -0.13873E-01  4444   0.176E-01    0.993E-01
DAV:   7    -0.490647933378E+04    0.11440E-01   -0.40359E-02  4340   0.134E-01    0.276E-01
DAV:   8    -0.490648156568E+04   -0.22319E-02   -0.78018E-03  4044   0.653E-02    0.261E-01
DAV:   9    -0.490648095349E+04    0.61219E-03   -0.30340E-03  4020   0.417E-02    0.110E-01
DAV:  10    -0.490648102620E+04   -0.72718E-04   -0.12389E-03  4124   0.288E-02    0.913E-02
DAV:  11    -0.490648097338E+04    0.52821E-04   -0.41062E-04  4308   0.195E-02    0.631E-02
DAV:  12    -0.490648097889E+04   -0.55088E-05   -0.28002E-04  4172   0.135E-02    0.593E-02
DAV:  13    -0.490648096055E+04    0.18344E-04   -0.27864E-04  3228   0.939E-03    0.370E-02
DAV:  14    -0.490648098062E+04   -0.20068E-04   -0.10740E-04  3004   0.811E-03    0.371E-02
DAV:  15    -0.490648097617E+04    0.44420E-05   -0.72259E-05  2676   0.680E-03
  66 F= -.49561319E+04 E0= -.49558408E+04  d E =-.881743E-01
 trial-energy change:   -0.088174  1 .order   -0.087771   -0.119837   -0.055705
 step:   0.7023(harm=  0.7239)  dis= 0.07318  next Energy= -4956.154766 (dE=-0.111E+00)
 bond charge predicted
       N       E                     dE             d eps       ncg     rms          rms(c)
DAV:   1    -0.490644140713E+04    0.39573E-01   -0.31794E+01  3662   0.466E+00    0.106E+00
DAV:   2    -0.490651385740E+04   -0.72450E-01   -0.81227E-01  3876   0.651E-01    0.102E+00
DAV:   3    -0.490651868483E+04   -0.48274E-02   -0.18418E-01  4396   0.272E-01    0.130E+00
DAV:   4    -0.490650014485E+04    0.18540E-01   -0.14193E-01  4148   0.188E-01    0.671E-01
DAV:   5    -0.490650433334E+04   -0.41885E-02   -0.67182E-02  4588   0.136E-01    0.676E-01
DAV:   6    -0.490650778309E+04   -0.34498E-02   -0.72611E-02  4476   0.145E-01    0.837E-01
DAV:   7    -0.490649961113E+04    0.81720E-02   -0.20649E-02  4316   0.112E-01    0.230E-01
DAV:   8    -0.490650125019E+04   -0.16391E-02   -0.50811E-03  4100   0.543E-02    0.221E-01
DAV:   9    -0.490650080123E+04    0.44896E-03   -0.20896E-03  4060   0.350E-02    0.907E-02
DAV:  10    -0.490650085446E+04   -0.53227E-04   -0.66678E-04  4092   0.241E-02    0.714E-02
DAV:  11    -0.490650083365E+04    0.20806E-04   -0.20520E-04  4212   0.166E-02    0.609E-02
DAV:  12    -0.490650082369E+04    0.99642E-05   -0.25708E-04  3972   0.114E-02    0.507E-02
DAV:  13    -0.490650081331E+04    0.10373E-04   -0.17110E-04  2884   0.777E-03    0.285E-02
DAV:  14    -0.490650082682E+04   -0.13509E-04   -0.67074E-05  2756   0.657E-03    0.285E-02
DAV:  15    -0.490650082717E+04   -0.34244E-06   -0.47648E-05  2604   0.541E-03
  67 F= -.49561560E+04 E0= -.49558645E+04  d E =-.112249E+00
 curvature:  -3.00 expect dE=-0.110E+01 dE for cont linesearch -0.390E-04
 trial: gam= 1.29588 g(F)=  0.368E+00 g(S)=  0.000E+00 ort = 0.579E-02 (trialstep = 0.246E+00)
 search vector abs. value=  0.470E+01
 bond charge predicted
       N       E                     dE             d eps       ncg     rms          rms(c)
DAV:   1    -0.490650939687E+04   -0.85700E-02   -0.34630E+01  3662   0.486E+00    0.111E+00
DAV:   2    -0.490660074821E+04   -0.91351E-01   -0.10096E+00  3916   0.696E-01    0.140E+00
DAV:   3    -0.490658725567E+04    0.13493E-01   -0.46281E-01  4252   0.311E-01    0.117E+00
DAV:   4    -0.490657731953E+04    0.99361E-02   -0.12619E-01  4172   0.185E-01    0.856E-01
DAV:   5    -0.490657403252E+04    0.32870E-02   -0.43004E-02  4300   0.135E-01    0.569E-01
DAV:   6    -0.490658183127E+04   -0.77988E-02   -0.38110E-02  4492   0.140E-01    0.867E-01
DAV:   7    -0.490657271443E+04    0.91168E-02   -0.21210E-02  4316   0.113E-01    0.269E-01
DAV:   8    -0.490657476154E+04   -0.20471E-02   -0.86418E-03  4012   0.654E-02    0.321E-01
DAV:   9    -0.490657372761E+04    0.10339E-02   -0.38496E-03  4036   0.420E-02    0.116E-01
DAV:  10    -0.490657390663E+04   -0.17903E-03   -0.19101E-03  4348   0.266E-02    0.107E-01
DAV:  11    -0.490657380148E+04    0.10516E-03   -0.43679E-04  3972   0.189E-02    0.498E-02
DAV:  12    -0.490657381923E+04   -0.17753E-04   -0.12817E-04  4076   0.123E-02    0.451E-02
DAV:  13    -0.490657381210E+04    0.71359E-05   -0.69925E-05  3380   0.881E-03
  68 F= -.49562340E+04 E0= -.49559425E+04  d E =-.780614E-01
 trial-energy change:   -0.078061  1 .order   -0.077463   -0.092578   -0.062347
 step:   0.6352(harm=  0.7543)  dis= 0.09789  next Energy= -4956.285610 (dE=-0.130E+00)
 bond charge predicted
       N       E                     dE             d eps       ncg     rms          rms(c)
DAV:   1    -0.490646323039E+04    0.11059E+00   -0.86325E+01  3662   0.766E+00    0.178E+00
DAV:   2    -0.490670085861E+04   -0.23763E+00   -0.26822E+00  3956   0.111E+00    0.224E+00
DAV:   3    -0.490665886534E+04    0.41993E-01   -0.72261E-01  4188   0.503E-01    0.179E+00
DAV:   4    -0.490663738432E+04    0.21481E-01   -0.32275E-01  4260   0.299E-01    0.146E+00
DAV:   5    -0.490662400668E+04    0.13378E-01   -0.22297E-01  4292   0.218E-01    0.886E-01
DAV:   6    -0.490664314119E+04   -0.19135E-01   -0.17185E-01  4588   0.216E-01    0.134E+00
DAV:   7    -0.490662277818E+04    0.20363E-01   -0.33992E-02  4324   0.182E-01    0.498E-01
DAV:   8    -0.490662761835E+04   -0.48402E-02   -0.29895E-02  4236   0.116E-01    0.593E-01
DAV:   9    -0.490662411458E+04    0.35038E-02   -0.10468E-02  4124   0.750E-02    0.210E-01
DAV:  10    -0.490662469667E+04   -0.58208E-03   -0.51354E-03  4300   0.448E-02    0.181E-01
DAV:  11    -0.490662442779E+04    0.26888E-03   -0.95311E-04  3964   0.318E-02    0.833E-02
DAV:  12    -0.490662448106E+04   -0.53266E-04   -0.43530E-04  4284   0.203E-02    0.815E-02
DAV:  13    -0.490662445983E+04    0.21228E-04   -0.25179E-04  4260   0.148E-02    0.586E-02
DAV:  14    -0.490662448018E+04   -0.20354E-04   -0.91411E-05  3844   0.113E-02    0.547E-02
DAV:  15    -0.490662446983E+04    0.10354E-04   -0.57358E-05  3148   0.980E-03    0.276E-02
DAV:  16    -0.490662448280E+04   -0.12968E-04   -0.40631E-05  2692   0.625E-03    0.118E-02
DAV:  17    -0.490662449328E+04   -0.10481E-04   -0.14011E-05  2612   0.343E-03    0.863E-03
DAV:  18    -0.490662449866E+04   -0.53776E-05   -0.79314E-06  2540   0.215E-03
  69 F= -.49562929E+04 E0= -.49560003E+04  d E =-.136886E+00
 curvature:  -4.46 expect dE=-0.137E+01 dE for cont linesearch -0.157E-02
 trial: gam= 0.57715 g(F)=  0.308E+00 g(S)=  0.000E+00 ort = 0.407E-01 (trialstep = 0.324E+00)
 search vector abs. value=  0.192E+01
 bond charge predicted
