unknown system                          
            1
    27.179300    0.000000    0.000000
    -0.066903   27.147818    0.000000
     0.000000    0.014821   27.131096
   O    B    C    Mg
   240    48   300    96
Direct configuration=     1
   0.84791348  0.71966981  0.32769538
   0.34278243  0.21025133  0.83347071
   0.68944604  0.24845901  0.76431368
   0.17241830  0.76987544  0.29968493
   0.20477373  0.27593305  0.23379545
   0.65811048  0.71804732  0.67502532
   0.31454395  0.74308397  0.70177460
   0.82413679  0.23978879  0.19533192
   0.28963561  0.80895528  0.75469575
   0.79217255  0.30085552  0.24986363
   0.82510009  0.64939825  0.28031860
   0.29819079  0.19136796  0.75964825
   0.23642519  0.21158811  0.28490182
   0.69028689  0.65759223  0.72932776
   0.69340217  0.33215440  0.73600859
   0.23054003  0.78782049  0.23566706
   0.74058419  0.30649533  0.80531493
   0.24865312  0.80752165  0.31972679
   0.24964736  0.79713468  0.67759822
   0.77105343  0.30290792  0.16513967
   0.26260998  0.21864004  0.20127992
   0.74492699  0.70866029  0.68325674
   0.77171860  0.67915310  0.34355268
   0.25608546  0.19660752  0.83611768
   0.97873925  0.08962169  0.57330609
   0.50313683  0.57102141  0.04246057
   0.51972741  0.94083054  0.04566001
   0.03874179  0.39326342  0.57743322
   0.48571002  0.42333168  0.44936145
   0.98049459  0.93940228  0.95210261
   0.99335368  0.56947072  0.95817983
   0.52970863  0.08565859  0.42799991
   0.05552263  0.54352195  0.00513136
   0.54292386  0.02910363  0.49461006
   0.91803113  0.05894666  0.51098830
   0.42935093  0.55363927  0.00510373
   0.42720103  0.45968087  0.50396699
   0.89573112  0.93266438  0.97243263
   0.60294697  0.93850655  0.01864039
   0.10837753  0.41968795  0.53094679
   0.58376784  0.98165982  0.09641178
   0.08880493  0.45961731  0.60693175
   0.01698809  0.48749212  0.94959981
   0.55335427  0.00291189  0.41154559
   0.43507554  0.48974912  0.42172284
   0.92123096  0.99356514  0.90730544
   0.95316959  0.00327784  0.56946552
   0.45880167  0.49673328  0.05795904
   0.91187390  0.67846169  0.11818250
   0.97626272  0.80784272  0.22159063
   0.90427831  0.78670308  0.28013707
   0.87801691  0.63820785  0.19540967
   0.38735927  0.12963899  0.72343188
   0.38171528  0.29979674  0.75504169
   0.44883750  0.31423849  0.68752339
   0.42626762  0.14697316  0.63740382
   0.52741213  0.18435329  0.70614670
   0.53780345  0.34293356  0.63407081
   0.63505669  0.32966567  0.63369829
   0.59091391  0.22411620  0.76644946
   0.12250071  0.68277933  0.23535936
   0.14202515  0.85005964  0.19991493
   0.07190641  0.84795590  0.13500895
   0.03020943  0.69490070  0.21189203
   0.03139173  0.29773427  0.28070056
   0.07505048  0.15812625  0.37050362
   0.16644543  0.17651526  0.35097489
   0.12322346  0.32465045  0.27193927
   0.59304350  0.67817004  0.88792312
   0.53301744  0.80612715  0.77994359
   0.56604759  0.75611093  0.70541158
   0.65429584  0.66035172  0.81973788
   0.38737588  0.68591041  0.76087072
   0.37348008  0.85703511  0.78609423
   0.43140074  0.84945753  0.86096272
   0.47788967  0.69345803  0.79340001
   0.89051199  0.17693546  0.26109409
   0.86969337  0.34682369  0.29505738
   0.92421973  0.33535174  0.37271758
   0.98270033  0.18919025  0.29387947
   0.21752993  0.97609797  0.80778597
   0.11603895  0.91678274  0.67184226
   0.19746134  0.87695085  0.64634101
   0.24613277  0.88461692  0.81332254
   0.70966901  0.45958695  0.31405104
   0.62865034  0.42316589  0.16090896
   0.71004250  0.38128309  0.13755460
   0.74609827  0.37170456  0.30743755
   0.70400804  0.61093485  0.37097183
   0.76327586  0.60163643  0.20902670
   0.70170665  0.53123341  0.18949794
   0.62434872  0.57130939  0.34301957
   0.21781841  0.02919626  0.70161416
   0.12921599  0.07864974  0.84457741
   0.15683456  0.16806864  0.82716625
   0.25791349  0.11572959  0.69842605
   0.28056977  0.02195035  0.29885714
   0.36362316  0.07544112  0.15698959
   0.34669323  0.16575233  0.18167438
   0.25225536  0.11141377  0.31611917
   0.79519794  0.62735515  0.63617365
   0.78015169  0.62959175  0.81253787
   0.81319417  0.54217849  0.81522114
   0.87502595  0.57398229  0.64803223
   0.87133770  0.43134307  0.83263984
   0.80242665  0.48167030  0.67832799
   0.73803673  0.41017059  0.68526316
   0.78916639  0.38636496  0.85000417
   0.28608399  0.97176080  0.19291219
   0.38299330  0.92209835  0.33045025
   0.35269865  0.83266863  0.31490347
   0.25391021  0.88222847  0.18358763
   0.80262547  0.21847092  0.95765512
   0.66704028  0.11920706  0.90512767
   0.68100576  0.15584958  0.81705982
   0.77077220  0.28215079  0.89580708
   0.12614482  0.71779710  0.37584952
   0.27980650  0.78671070  0.41572054
   0.31454719  0.70193587  0.44565325
   0.14856639  0.63833040  0.42466093
   0.34913607  0.68791448  0.62252190
   0.18800201  0.75183119  0.61058213
   0.18007958  0.71551547  0.52176203
   0.33753152  0.64049721  0.54091895
   0.85060262  0.17115123  0.11788234
   0.70037411  0.26467724  0.10500204
   0.68304715  0.22625059  0.01729914
   0.83148457  0.13535332  0.02702910
   0.29876610  0.28371579  0.03112219
   0.15648759  0.37442145  0.08154528
   0.14803648  0.30197090  0.14277163
   0.31653285  0.26844991  0.12406429
   0.66334991  0.88089840  0.57631616
   0.81959652  0.80466647  0.53757499
   0.80051486  0.74472669  0.60761677
   0.63348525  0.79753126  0.61384523
   0.87199661  0.79141218  0.39659794
   0.70448739  0.74143841  0.39309697
   0.69380318  0.79092762  0.47586882
   0.84194445  0.87540230  0.42856345
   0.31994982  0.38270344  0.91212529
   0.18641804  0.28692770  0.97611272
   0.22839153  0.20754213  0.94199815
   0.34801025  0.30646756  0.86611767
   0.02473154  0.17412451  0.53908627
   0.88092482  0.13383471  0.45257971
   0.91835019  0.16169257  0.37016060
   0.06035147  0.21762570  0.46163509
   0.41718858  0.67593716  0.87028776
   0.55495772  0.73974150  0.96190143
   0.55979994  0.64899928  0.00417325
   0.39249417  0.63314637  0.95018428
   0.44460624  0.79742611  0.95222007
   0.59374485  0.83146646  0.86310881
   0.61978849  0.88085952  0.93977629
   0.45380003  0.88512530  0.99675883
   0.96495922  0.35687636  0.51807491
   0.12166032  0.36103954  0.44405130
   0.07550990  0.33667171  0.36537405
   0.94255591  0.28107920  0.46428986
   0.56080828  0.28195671  0.54789855
   0.39025878  0.29476699  0.60120588
   0.38393322  0.37765937  0.55154951
   0.55668654  0.37011482  0.51636304
   0.05761921  0.79380540  0.04291983
   0.91654529  0.83674749  0.13938274
   0.88169607  0.87639288  0.05995643
   0.04447681  0.87841410  0.99314800
   0.08860325  0.68083212  0.12142393
   0.94143009  0.73561765  0.04138750
   0.93361269  0.64388099  0.01072261
   0.10384289  0.63126788  0.04223398
   0.58415233  0.17585377  0.61635706
   0.42529075  0.20277702  0.54219689
   0.43542434  0.11508728  0.50253932
   0.60399187  0.12549027  0.53753970
   0.07994828  0.40576187  0.92603947
   0.12392617  0.49600599  0.06606624
   0.21362186  0.46598227  0.05826983
   0.16986608  0.37641261  0.91463151
   0.58071183  0.90320076  0.41225994
   0.62213029  0.99504888  0.55243503
   0.71282272  0.96711147  0.54293802
   0.66237777  0.85720007  0.40951074
   0.89736279  0.90536069  0.57063915
   0.85633054  0.01411217  0.44361324
   0.77471714  0.96464019  0.43049028
   0.80134761  0.89817545  0.58943294
   0.32534340  0.37470754  0.08584738
   0.26585607  0.46096408  0.94444785
   0.35641461  0.49393477  0.93492354
   0.37622865  0.45274958  0.10327768
   0.28942388  0.60484017  0.39650360
   0.27418092  0.55821097  0.56523566
   0.33835520  0.48908167  0.54906901
   0.38444535  0.58720480  0.41472676
   0.80137839  0.05114453  0.07378897
   0.84872945  0.13155976  0.92357176
   0.84439014  0.04897000  0.87350456
   0.81756403  0.96719868  0.02640325
   0.69838666  0.96007392  0.98311320
   0.64126429  0.05599591  0.11520667
   0.66831044  0.13560185  0.07184522
   0.72794846  0.03967143  0.93663430
   0.17892580  0.46335311  0.47542863
   0.13866110  0.55044230  0.61949619
   0.16354525  0.63174962  0.57846974
   0.19748563  0.54490977  0.43036647
   0.37553605  0.92107625  0.15992135
   0.45789904  0.07011151  0.20917840
   0.50618377  0.05785197  0.12687465
   0.45922464  0.89226300  0.12496272
   0.96387670  0.55895527  0.70477724
   0.87667344  0.40993126  0.66838451
   0.96081614  0.37242484  0.64399037
   0.01937524  0.53454681  0.62997132
   0.89563585  0.58082857  0.89182110
   0.02480627  0.47191656  0.84762484
   0.96926768  0.44055065  0.77570073
   0.90152494  0.59858398  0.79547145
   0.54297212  0.98175301  0.30936610
   0.44780723  0.11168506  0.37118386
   0.37008645  0.07556770  0.33188953
   0.46614593  0.94359254  0.26706900
   0.61532637  0.39920442  0.32417407
   0.54747996  0.55564980  0.28120481
   0.51094637  0.55204748  0.37149971
   0.52910546  0.37996871  0.36230846
   0.12539707  0.92274864  0.83540480
   0.04193658  0.06959810  0.78316699
   0.99763281  0.06552720  0.86838342
   0.04303636  0.89865927  0.87705205
   0.13166217  0.08844007  0.67176797
   0.04122128  0.94941432  0.73256345
   0.00491287  0.94652806  0.64195613
   0.05086221  0.11417159  0.62991465
   0.61518610  0.58790060  0.19352966
   0.53685434  0.43402431  0.21792458
   0.50573265  0.43610046  0.12811157
   0.57848923  0.59104300  0.10567939
   0.85470528  0.69050652  0.28665803
   0.34180499  0.20383679  0.78299839
   0.67148585  0.28625687  0.73512804
   0.18424620  0.77306504  0.25064122
   0.20103122  0.24725960  0.27608096
   0.65334318  0.69114520  0.71819405
   0.32360392  0.77368765  0.74135828
   0.82801576  0.26681717  0.23812825
   0.25545797  0.82414396  0.72027536
   0.76633386  0.32256824  0.21175096
   0.78214090  0.64482789  0.30720093
   0.25710491  0.18075971  0.78764611
   0.26500430  0.19470976  0.24634927
   0.73698443  0.66790000  0.71226705
   0.72987150  0.34194111  0.77033354
   0.25845610  0.81324383  0.27001990
   0.71940044  0.26013777  0.80376296
   0.20789934  0.78029981  0.33488144
   0.27785742  0.75554895  0.66898947
   0.79215493  0.25689179  0.15925195
   0.23391211  0.25994421  0.19531425
   0.70518447  0.72895056  0.65815828
   0.80480495  0.71643183  0.35416173
   0.29799563  0.21612519  0.85733097
   0.94552073  0.09769050  0.53007004
   0.46856295  0.58496492  0.00810882
   0.55452674  0.92417966  0.01251253
   0.06706920  0.39056864  0.53539928
   0.46049371  0.42269677  0.49373460
   0.94391018  0.91852711  0.98058062
   0.02078232  0.57898349  0.99396468
   0.53184217  0.07556043  0.47775776
   0.05412905  0.49713913  0.98309436
   0.56196409  0.99552704  0.46133965
   0.91988184  0.01265115  0.53191683
   0.42268272  0.51111670  0.02511303
   0.41077277  0.49028196  0.46668151
   0.88487780  0.97153164  0.94110329
   0.61655734  0.96905053  0.05690859
   0.11739468  0.45710691  0.56462296
   0.53496257  0.96214026  0.08914779
   0.04570682  0.43254017  0.60886418
   0.99544473  0.52570284  0.93241769
   0.53091007  0.04593623  0.39596886
   0.47455229  0.45866829  0.41460813
   0.96888629  0.96862214  0.91234584
   0.97889585  0.04230676  0.59036542
   0.49829470  0.52750466  0.06862290
   0.99954554  0.75805800  0.12805340
   0.48712402  0.24189660  0.61912425
   0.00141784  0.24803989  0.37577250
   0.50486680  0.75893278  0.87111957
   0.12644481  0.00483735  0.75573082
   0.62454449  0.49267257  0.25275174
   0.37579250  0.00066177  0.24381178
   0.88092272  0.50238063  0.73972521
   0.74207462  0.13430875  0.99412926
   0.23740495  0.62890230  0.48962639
   0.24256959  0.37587882  0.00220780
   0.74499549  0.87822703  0.49647302
   0.92399874  0.70282607  0.15854551
   0.95642414  0.74317825  0.16362374
   0.95126553  0.76958100  0.20908231
   0.91324007  0.75422606  0.24712605
   0.89144275  0.70728400  0.24648205
   0.89772961  0.68073076  0.20250217
   0.39993140  0.17471583  0.71559723
   0.38625930  0.21281170  0.74792111
   0.39965559  0.26036089  0.73457916
   0.43431275  0.26928124  0.69178794
   0.44595039  0.23157794  0.65752117
   0.42599459  0.18467552  0.66675344
   0.54598603  0.22579887  0.69196024
   0.52981482  0.25648795  0.65357676
   0.55454680  0.30223532  0.65147751
   0.60870047  0.30373991  0.66368863
   0.62392657  0.27796298  0.70557742
   0.58839734  0.24434618  0.72413511
   0.11137868  0.72373476  0.21406937
   0.14151052  0.76494396  0.21384990
   0.12203811  0.80765904  0.19281723
   0.07686561  0.80716786  0.15954144
   0.04580030  0.76583910  0.16029621
   0.05942250  0.72747560  0.19396766
   0.06198360  0.27401350  0.30769378
   0.04920261  0.23957172  0.34558644
   0.08333161  0.20136355  0.35178300
   0.13678738  0.20923811  0.33549542
   0.15258929  0.24951062  0.30595941
   0.11580012  0.28367599  0.29445289
   0.58419611  0.70400954  0.84695853
   0.54974839  0.74160685  0.83889319
   0.55288697  0.76469023  0.79094015
   0.57759781  0.73938873  0.74802524
   0.61352133  0.70338860  0.75668194
   0.61894948  0.68868773  0.80617331
   0.40079664  0.72901506  0.77478886
   0.37277642  0.77170623  0.76939239
   0.39097957  0.81393387  0.79315266
   0.43071392  0.81089671  0.83323747
   0.46129001  0.76888387  0.83536226
   0.45036959  0.73136776  0.80086653
   0.90268785  0.22074250  0.27626168
   0.87371484  0.26277464  0.27170684
   0.88867909  0.30394841  0.29978622
   0.92613093  0.29943764  0.34143976
   0.95865070  0.25907899  0.34073730
   0.95160407  0.22442610  0.30274986
   0.19898970  0.94713526  0.77548639
   0.15762203  0.95786743  0.74365521
   0.15308995  0.92464672  0.70420345
   0.19455033  0.89048033  0.69175360
   0.22461773  0.87094395  0.72913326
   0.22341317  0.89702454  0.77375492
   0.69716973  0.43596237  0.27491907
   0.65993548  0.44949226  0.24063411
   0.66071008  0.42270571  0.19598111
   0.70450272  0.38942809  0.18344214
   0.73240887  0.36710519  0.22106167
   0.72585029  0.38775047  0.26795088
   0.70544328  0.59295273  0.32687391
   0.74380278  0.60444663  0.29424472
   0.73839103  0.58579809  0.24629405
   0.69924707  0.54769484  0.23411711
   0.66008902  0.53622538  0.26743330
   0.66040745  0.56401336  0.31130083
   0.19912973  0.06024884  0.73194234
   0.15994768  0.04979577  0.76516347
   0.15301940  0.08419450  0.80364520
   0.17602560  0.13513676  0.79963953
   0.21723354  0.14474189  0.76974269
   0.22618874  0.10987142  0.73268285
   0.30273266  0.05461964  0.27276362
   0.34124435  0.04537589  0.23819348
   0.34507120  0.08111670  0.20059705
   0.32789380  0.13363494  0.21043769
   0.29438099  0.14586594  0.24824919
   0.28194491  0.10695805  0.27983672
   0.80467261  0.61164951  0.68060973
   0.77903867  0.63059849  0.72176317
   0.79074552  0.60962712  0.76673993
   0.81682821  0.56326911  0.76910313
   0.84822440  0.54833265  0.73029933
   0.84554564  0.57650258  0.68615642
   0.83952165  0.43411654  0.79718147
   0.84250419  0.46240333  0.75356768
   0.80397818  0.45666997  0.71906038
   0.76498311  0.41741342  0.72421125
   0.76113006  0.38948804  0.76741071
   0.79397312  0.40249515  0.80590769
   0.30784865  0.94057976  0.22078830
   0.34760937  0.95202089  0.25330877
   0.35707368  0.91688482  0.29056224
   0.33429168  0.86582058  0.28657176
   0.29513120  0.85418560  0.25517249
   0.28456059  0.88896895  0.21874602
   0.76761345  0.20283290  0.93020447
   0.73905577  0.15905991  0.93813877
   0.70306762  0.14935553  0.90134606
   0.70503590  0.17703867  0.85163272
   0.72736201  0.22375408  0.84744817
   0.75393430  0.23869872  0.88933041
   0.17020392  0.71645618  0.39372430
   0.20607451  0.75291716  0.38428827
   0.24999005  0.74953477  0.41191984
   0.26465665  0.70348092  0.43574016
   0.23001866  0.66639336  0.44656565
   0.18251766  0.67169939  0.42377611
   0.30724919  0.69486052  0.60155019
   0.27029595  0.72537208  0.62130671
   0.22610441  0.72788017  0.59487942
   0.21869379  0.70189632  0.54665765
   0.25217103  0.66427220  0.53197285
   0.29886301  0.66513962  0.55471044
   0.81149640  0.18990057  0.09448679
   0.77973835  0.22642885  0.11296019
   0.73440990  0.23562458  0.08791451
   0.72134350  0.21061223  0.04123227
   0.75236927  0.17125190  0.02632749
   0.79725117  0.16777205  0.04891093
   0.26920850  0.30534620  0.06084279
   0.23390849  0.34278627  0.04874777
   0.19415263  0.34513963  0.08188958
   0.19120303  0.30844757  0.12492406
   0.23362137  0.28675622  0.14498818
   0.27434503  0.28705168  0.11374646
   0.69354395  0.84391275  0.57194262
   0.73758402  0.84439220  0.54314499
   0.77188640  0.80798168  0.55610932
   0.76234549  0.77163280  0.59529369
   0.71510811  0.76559200  0.61583677
   0.67900338  0.79944078  0.60027465
   0.82615722  0.79288941  0.40745808
   0.79205444  0.75587322  0.39319289
   0.74404099  0.76250741  0.41061268
   0.73445880  0.79846230  0.45186153
   0.76406893  0.84084095  0.45767638
   0.80974412  0.84036729  0.43248175
   0.29538245  0.34308262  0.92574155
   0.25593096  0.33947054  0.95927702
   0.22942151  0.29369747  0.95742106
   0.25095974  0.24829461  0.93313065
   0.29101280  0.25193604  0.90109145
   0.31306217  0.29856605  0.89711627
   0.00497057  0.17155767  0.50038235
   0.95382607  0.14399539  0.49795571
   0.92553965  0.15030250  0.45505702
   0.94556359  0.17414077  0.41002245
   0.98774213  0.20440629  0.41178043
   0.01658605  0.19934908  0.45608490
   0.44791580  0.68487595  0.90652237
   0.48901109  0.71695095  0.90800228
   0.51923938  0.71024231  0.94997688
   0.51801234  0.66200419  0.97832742
   0.47405136  0.63472050  0.98080772
   0.43632906  0.65158966  0.94954954
   0.48361245  0.82078062  0.93857381
   0.51678215  0.80546276  0.90134525
   0.56043183  0.83362702  0.89690864
   0.57435011  0.86891236  0.93867292
   0.53948105  0.88829353  0.97147646
   0.49184074  0.86864114  0.96712815
   0.99930742  0.34215100  0.48945691
   0.04856359  0.35816487  0.49253511
   0.07669471  0.34851362  0.45037154
   0.05305038  0.32488245  0.40545673
   0.01263174  0.29213562  0.41085103
   0.98356134  0.30214463  0.45283940
   0.51442992  0.30193050  0.55177295
   0.47624292  0.28362268  0.58179949
   0.43042580  0.30851239  0.57857723
   0.42636438  0.35532354  0.55067418
   0.46741829  0.37683081  0.52675912
   0.51124990  0.35056388  0.52960110
   0.01822472  0.81663695  0.05603372
   0.99468674  0.80372622  0.09615042
   0.94508117  0.83352308  0.10140085
   0.92695840  0.86406453  0.05746591
   0.95908530  0.88074037  0.02042489
   0.00742977  0.86232897  0.02452327
   0.05316110  0.68411445  0.09009569
   0.01146100  0.71540359  0.09092944
   0.97769788  0.70700735  0.05214685
   0.97656620  0.65714238  0.02544731
   0.01957632  0.62924496  0.02075907
   0.06003331  0.64753249  0.04728964
   0.54764615  0.17285384  0.58597300
   0.50161553  0.19718778  0.58720701
   0.46601457  0.18105775  0.55229945
   0.47391298  0.13421388  0.52279832
   0.52116813  0.11689334  0.51525797
   0.55859313  0.13768021  0.54330284
   0.11021225  0.42357020  0.95731311
   0.09768387  0.46122509  0.99085939
   0.13231783  0.46908614  0.02821474
   0.18391836  0.44599453  0.02719913
   0.19590099  0.40751551  0.99359845
   0.16215355  0.40080914  0.95481209
   0.61233606  0.91810797  0.44460940
   0.59940696  0.95626277  0.47712444
   0.63124497  0.96526688  0.51659479
   0.68210495  0.94396598  0.51533647
   0.69506210  0.90321532  0.48258286
   0.66023116  0.89154372  0.44607994
   0.86752340  0.93275700  0.54542395
   0.88005413  0.97442960  0.51726850
   0.84682984  0.98296761  0.47796891
   0.79945779  0.95292755  0.46945083
   0.78525236  0.91731593  0.50450154
   0.81421289  0.91695655  0.54725981
   0.32106989  0.40838158  0.05247026
   0.28723045  0.41061991  0.01305008
   0.29541744  0.44991100  0.97977434
   0.34510967  0.47716117  0.97805705
   0.37430706  0.48047396  0.02049161
   0.35818358  0.45043440  0.05992019
   0.30119426  0.58284388  0.43778959
   0.27718383  0.58944507  0.48241207
   0.29120314  0.55705414  0.52121173
   0.33151868  0.51873457  0.51273766
   0.36410298  0.52265962  0.47225657
   0.35263896  0.56195536  0.44007377
   0.80566729  0.05192095  0.02184728
   0.80808010  0.09857900  0.99553677
   0.82867533  0.09540114  0.94535411
   0.83330404  0.04674008  0.91976865
   0.83903837  0.00508188  0.94975505
   0.81923045  0.00708362  0.99961473
   0.69058150  0.00068167  0.99821235
   0.66135692  0.00375476  0.04886217
   0.66144048  0.04968416  0.07297452
   0.68180826  0.09608863  0.04893587
   0.70976526  0.09337420  0.00463228
   0.71212506  0.04607893  0.98107537
   0.17146382  0.50176673  0.50140482
   0.15068544  0.50053938  0.54899249
   0.15226358  0.54559211  0.57470648
   0.17085876  0.59367607  0.55092932
   0.19389612  0.59387033  0.50432973
   0.18762578  0.54975985  0.47631751
   0.41105122  0.95190500  0.16719929
   0.41063819  0.99425054  0.19780265
   0.44854448  0.02906488  0.18704915
   0.48397595  0.01968555  0.14423758
   0.49393529  0.97213325  0.12797777
   0.45787213  0.93720301  0.13956201
   0.95519549  0.51641806  0.68583077
   0.91427551  0.48622851  0.69694851
   0.91356635  0.43987059  0.67332523
   0.96164550  0.41881581  0.65249905
   0.99454021  0.44944031  0.64101840
   0.99394885  0.49980437  0.64929671
   0.92426348  0.55310221  0.86583470
   0.96243910  0.52261840  0.88195951
   0.98289051  0.49269897  0.84444040
   0.95361893  0.47953986  0.79790692
   0.91636487  0.51201266  0.78294400
   0.91516269  0.55595473  0.81094499
   0.50241141  0.00493102  0.31638277
   0.49883579  0.04447283  0.34934465
   0.45472991  0.07152438  0.34766571
   0.40966755  0.05244826  0.31942152
   0.41393694  0.01292187  0.28548444
   0.45853239  0.98582748  0.28778202
   0.58402062  0.43462813  0.32099187
   0.58833058  0.47908791  0.29422744
   0.55223300  0.51462149  0.30457046
   0.52132839  0.51072107  0.35094792
   0.50812857  0.46427975  0.36895810
   0.53655957  0.42512089  0.35066199
   0.09107504  0.95549975  0.83154644
   0.09085301  0.99687728  0.80022765
   0.05285729  0.03153354  0.80951675
   0.01972479  0.02591748  0.85448141
   0.01089484  0.97974009  0.87506524
   0.04545962  0.94343311  0.86233691
   0.09579336  0.05798242  0.67849736
   0.09244730  0.01761723  0.71156884
   0.05179040  0.98638239  0.70399031
   0.02224460  0.98842488  0.65670379
   0.01623795  0.03357975  0.63249919
   0.05072276  0.07024848  0.64660054
   0.59191963  0.54839423  0.18086392
   0.59107510  0.50410156  0.20750825
   0.55409215  0.47002909  0.19233414
   0.52963940  0.47441513  0.14147105
   0.53283579  0.51728655  0.11277447
   0.56592879  0.55306980  0.13071899
   0.95058275  0.84147911  0.28603223
   0.84905143  0.62967922  0.13053784
   0.39320551  0.35784012  0.71139811
   0.38020730  0.09345585  0.65968168
   0.58704482  0.34593958  0.58083252
   0.55745229  0.15899976  0.77004514
   0.12713920  0.89769549  0.14673134
   0.06295250  0.65653689  0.26939301
   0.13517631  0.11255454  0.36739315
   0.06481900  0.34238415  0.23008288
   0.54940175  0.82682867  0.70774206
   0.65707111  0.62748331  0.88190914
   0.37621256  0.89877253  0.84626719
   0.42625908  0.64150341  0.80313609
   0.86787034  0.38389228  0.35785936
   0.93415333  0.13804323  0.30339067
   0.13467731  0.86397548  0.61492978
   0.27763943  0.94312550  0.84291916
   0.64505633  0.37829665  0.10290830
   0.76885902  0.42701920  0.34906950
   0.73556312  0.58243647  0.14459509
   0.64169971  0.64302833  0.38450275
   0.12636146  0.14119578  0.88782659
   0.28210727  0.05347885  0.66904888
   0.36491594  0.13857003  0.11611148
   0.22010145  0.05014480  0.33764719
   0.74311922  0.57021863  0.83838462
   0.85637017  0.62763109  0.59874363
   0.77025218  0.44098673  0.62915625
   0.85273799  0.38052722  0.88557505
   0.38297385  0.85977235  0.37437824
   0.22427398  0.94371458  0.15819328
   0.62318713  0.11814176  0.84262530
   0.82911046  0.28815181  0.93876664
   0.34633998  0.77571895  0.43744671
   0.09748013  0.65130421  0.37110542
   0.14309503  0.76874486  0.55733714
   0.37302540  0.62191476  0.60410053
   0.65390894  0.28505232  0.05299293
   0.84156329  0.10537744  0.09533027
   0.10529186  0.36108256  0.13436424
   0.34012205  0.22969034  0.06634255
   0.84193734  0.72801652  0.55119923
   0.60507627  0.86344217  0.62254588
   0.65105635  0.78284562  0.41925928
   0.89947547  0.85802282  0.38215640
   0.15809387  0.21792228  0.95694760
   0.35596610  0.37133351  0.83810482
   0.85647847  0.11772612  0.38800474
   0.09207767  0.19794291  0.52836917
   0.60664498  0.69012645  0.95940730
   0.37412107  0.60735203  0.88614340
   0.65222856  0.88244807  0.87524506
   0.40851615  0.83118605  0.00950662
   0.13602581  0.38208729  0.37426485
   0.91033522  0.30932760  0.52622320
   0.35348796  0.35704321  0.61307976
   0.57483450  0.30991280  0.47516908
   0.86227938  0.88827436  0.12903782
   0.09299763  0.82649785  0.98414138
   0.88801856  0.68638342  0.04842156
   0.14064930  0.62638131  0.10532987
   0.38735552  0.16766924  0.48677870
   0.63864601  0.12444635  0.60170368
   0.18371368  0.52755396  0.09278944
   0.11188447  0.37648383  0.86678814
   0.68061337  0.02531420  0.58234916
   0.60562702  0.86926766  0.35489583
   0.80416177  0.02323982  0.39471685
   0.85316008  0.84861912  0.58392487
   0.31394239  0.45385355  0.88945696
   0.37973358  0.38789897  0.13788340
   0.32718666  0.52740053  0.61002029
   0.34507928  0.64867221  0.40821055
   0.88254102  0.10852677  0.85730495
   0.80906710  0.97715416  0.09593099
   0.61810626  0.12374824  0.12779131
   0.71637872  0.96761797  0.91274385
   0.11810564  0.61889211  0.63572782
   0.18356188  0.47475020  0.40360706
   0.51952191  0.10796699  0.17752960
   0.39181930  0.86736851  0.10901745
   0.89326362  0.35154053  0.62431217
   0.02129664  0.59447138  0.67198355
   0.03426877  0.41402422  0.80327580
   0.84658293  0.60617606  0.84224069
   0.37810490  0.12734781  0.38708869
   0.53287994  0.91436423  0.28549189
   0.55611861  0.59967823  0.33903547
   0.59277975  0.34680954  0.37503607
   0.98658991  0.10456215  0.80926326
   0.10966970  0.86927711  0.88661749
   0.04528082  0.90114806  0.68036862
   0.11727786  0.14239526  0.61902647
   0.47722626  0.39935708  0.18433750
   0.63888449  0.62109808  0.13192094
Direct configuration=     2
   0.84790508  0.71970649  0.32779417
   0.34279157  0.21027026  0.83333633
   0.68945710  0.24846670  0.76429351
   0.17232430  0.76990289  0.29970999
   0.20486769  0.27595284  0.23371157
   0.65834653  0.71820543  0.67500164
   0.31461781  0.74315903  0.70190305
   0.82406665  0.23975375  0.19515101
   0.28950373  0.80906923  0.75457650
   0.79217027  0.30082485  0.24986725
   0.82505713  0.64941387  0.28035825
   0.29827839  0.19138986  0.75965558
   0.23635031  0.21162134  0.28496300
   0.69042562  0.65749808  0.72940179
   0.69340255  0.33224573  0.73601693
   0.23059562  0.78790885  0.23567871
   0.74062079  0.30647164  0.80526645
   0.24852914  0.80742590  0.31982335
   0.24978112  0.79694163  0.67755218
   0.77107690  0.30277467  0.16514358
   0.26261082  0.21870524  0.20124796
   0.74479725  0.70878598  0.68320651
   0.77180332  0.67911003  0.34347108
   0.25600191  0.19659385  0.83624001
   0.97392550  0.08988227  0.56903004
   0.50408488  0.57114185  0.04236010
   0.52057772  0.94065950  0.04623781
   0.03885871  0.39352848  0.57783784
   0.48575310  0.42347898  0.44937416
   0.97948804  0.93957040  0.95140346
   0.98594320  0.56870261  0.94925891
   0.52972215  0.08559947  0.42796372
   0.05684393  0.54185677  0.00630509
   0.54295316  0.02892686  0.49463711
   0.91824483  0.05931750  0.51216459
   0.42751602  0.55968005 -0.00090627
   0.42713255  0.45975398  0.50397418
   0.89583389  0.93300644  0.97149185
   0.60248211  0.93794871  0.01913598
   0.10837079  0.41978706  0.53106107
   0.58163372  0.97771153  0.09399202
   0.08787032  0.45943558  0.60759330
   0.02062941  0.48209718  0.95159834
   0.55332520  0.00297193  0.41155320
   0.43504210  0.48982107  0.42167664
   0.92280933  0.98826079  0.91026492
   0.95255972  0.00367074  0.56948681
   0.45973486  0.49537334  0.05866518
   0.91190111  0.67850837  0.11815757
   0.97624421  0.80798597  0.22157786
   0.90422526  0.78675491  0.28014313
   0.87802350  0.63816607  0.19541570
   0.38735358  0.12976413  0.72344815
   0.38168528  0.29987981  0.75506427
   0.44876341  0.31433495  0.68747932
   0.42623719  0.14710075  0.63743175
   0.52738231  0.18448548  0.70607919
   0.53779718  0.34287993  0.63401035
   0.63529683  0.32976719  0.63371525
   0.59100538  0.22419340  0.76656563
   0.12249417  0.68283766  0.23538606
   0.14197962  0.84992538  0.19993499
   0.07215982  0.84805325  0.13522017
   0.03013496  0.69478479  0.21195111
   0.03137690  0.29770212  0.28072452
   0.07504854  0.15808599  0.37053378
   0.16648806  0.17643068  0.35098395
   0.12323155  0.32468953  0.27189270
   0.59312536  0.67805239  0.88824267
   0.53310188  0.80602246  0.78000400
   0.56607555  0.75612984  0.70528740
   0.65432016  0.66031385  0.81963105
   0.38722120  0.68588714  0.76079870
   0.37349977  0.85724711  0.78616900
   0.43144221  0.84941514  0.86097822
   0.47778465  0.69354107  0.79346313
   0.89054317  0.17694268  0.26111345
   0.86971694  0.34686567  0.29504261
   0.92422615  0.33528238  0.37272944
   0.98265225  0.18921583  0.29389912
   0.21749342  0.97622051  0.80772342
   0.11595429  0.91694708  0.67191304
   0.19740415  0.87687053  0.64644325
   0.24619661  0.88447589  0.81340065
   0.70964661  0.45958579  0.31406571
   0.62866326  0.42322388  0.16099843
   0.71003504  0.38118443  0.13748712
   0.74607427  0.37167157  0.30744739
   0.70404078  0.61089111  0.37095978
   0.76336889  0.60160051  0.20901893
   0.70170837  0.53127024  0.18975822
   0.62439738  0.57130449  0.34289214
   0.21777053  0.02915366  0.70158875
   0.12916593  0.07863063  0.84463668
   0.15680721  0.16814326  0.82719659
   0.25786541  0.11573512  0.69840518
   0.28054137  0.02190154  0.29888216
   0.36356696  0.07540506  0.15703407