<?xml version="1.0" encoding="ISO-8859-1"?>
<modeling>
 <generator>
  <i name="program" type="string">vasp </i>
  <i name="version" type="string">6.3.2  </i>
  <i name="subversion" type="string">27Jun22 (build Sep  5 2022 18:50:32) complex                          parallel </i>
  <i name="platform" type="string">LinuxNV </i>
  <i name="date" type="string">2023 01 14 </i>
  <i name="time" type="string">19:51:55 </i>
 </generator>
 <incar>
  <i type="string" name="PREC">Accurate   (Precision level: Normal or Accurate, set Accurate when perform structure lattice relaxation calculation)</i>
  <i type="string" name="ALGO">All</i>
  <i type="logical" name="ADDGRID"> T  </i>
  <i type="int" name="ISPIN">     2</i>
  <i type="int" name="NELM">   150</i>
  <i type="int" name="NELMIN">     6</i>
  <i type="int" name="IBRION">     2</i>
  <i name="EDIFF">      0.00000100</i>
  <i name="EDIFFG">     -0.01000000</i>
  <i type="int" name="NSW">   100</i>
  <i type="int" name="ISIF">     2</i>
  <i name="ENCUT">    520.00000000</i>
  <v name="MAGMOM">      2.00000000      2.00000000</v>
  <i type="logical" name="LREAL"> F  </i>
  <i type="int" name="ISMEAR">    -1</i>
  <i name="SIGMA">      0.05000000</i>
  <i type="logical" name="LWAVE"> T  </i>
  <i type="logical" name="LCHARG"> T  </i>
  <i type="int" name="LORBIT">    11</i>
 </incar>
 <primitive_cell>
  <structure name="primitive_cell" >
   <crystal>
    <varray name="basis" >
     <v>      11.10380000       0.00000000       0.00000000 </v>
     <v>       0.00000000      11.20020000       0.00000000 </v>
     <v>       0.00000000       0.00000000      32.43460000 </v>
    </varray>
    <i name="volume">   4033.72191804 </i>
    <varray name="rec_basis" >
     <v>       0.09005926       0.00000000       0.00000000 </v>
     <v>       0.00000000       0.08928412       0.00000000 </v>
     <v>       0.00000000       0.00000000       0.03083127 </v>
    </varray>
   </crystal>
   <varray name="positions" >
    <v>       0.51898000       0.46775000       0.48544000 </v>
    <v>       0.51898000       0.46775000       0.44486000 </v>
   </varray>
  </structure>
  <varray name="primitive_index" >
   <v type="int" >        1 </v>
   <v type="int" >        2 </v>
  </varray>
 </primitive_cell>
 <kpoints>
  <generation param="Monkhorst-Pack">
   <v type="int" name="divisions">       1        1        1 </v>
   <v name="usershift">      0.00000000       0.00000000       0.00000000 </v>
   <v name="genvec1">      1.00000000       0.00000000       0.00000000 </v>
   <v name="genvec2">      0.00000000       1.00000000       0.00000000 </v>
   <v name="genvec3">      0.00000000       0.00000000       1.00000000 </v>
   <v name="shift">      0.00000000       0.00000000       0.00000000 </v>
  </generation>
  <varray name="kpointlist" >
   <v>       0.00000000       0.00000000       0.00000000 </v>
  </varray>
  <varray name="weights" >
   <v>       1.00000000 </v>
  </varray>
 </kpoints>
 <parameters>
  <separator name="general" >
   <i type="string" name="SYSTEM">unknown system</i>
   <i type="logical" name="LCOMPAT"> F  </i>
  </separator>
  <separator name="electronic" >
   <i type="string" name="PREC">accura</i>
   <i name="ENMAX">    520.00000000</i>
   <i name="ENAUG">    400.00000000</i>
   <i name="EDIFF">      0.00000100</i>
   <i type="int" name="IALGO">    58</i>
   <i type="int" name="IWAVPR">    11</i>
   <i type="int" name="NBANDS">     8</i>
   <i type="int" name="NBANDSLOW">    -1</i>
   <i type="int" name="NBANDSHIGH">    -1</i>
   <i name="NELECT">      2.00000000</i>
   <i type="int" name="TURBO">     0</i>
   <i type="int" name="IRESTART">     0</i>
   <i type="int" name="NREBOOT">     0</i>
   <i type="int" name="NMIN">     0</i>
   <i name="EREF">      0.00000000</i>
   <separator name="electronic smearing" >
    <i type="int" name="ISMEAR">    -1</i>
    <i name="SIGMA">      0.05000000</i>
    <i name="KSPACING">      0.50000000</i>
    <i type="logical" name="KGAMMA"> T  </i>
    <i type="logical" name="KBLOWUP"> T  </i>
   </separator>
   <separator name="electronic projectors" >
    <i type="logical" name="LREAL"> F  </i>
    <v name="ROPT">      0.00000000</v>
    <i type="int" name="LMAXPAW">  -100</i>
    <i type="int" name="LMAXMIX">     2</i>
    <i type="logical" name="NLSPLINE"> F  </i>
   </separator>
   <separator name="electronic startup" >
    <i type="int" name="ISTART">     0</i>
    <i type="int" name="ICHARG">     2</i>
    <i type="int" name="INIWAV">     1</i>
   </separator>
   <separator name="electronic spin" >
    <i type="int" name="ISPIN">     2</i>
    <i type="logical" name="LNONCOLLINEAR"> F  </i>
    <v name="MAGMOM">      2.00000000      2.00000000</v>
    <i name="NUPDOWN">     -1.00000000</i>
    <i type="logical" name="LSORBIT"> F  </i>
    <v name="SAXIS">      0.00000000      0.00000000      1.00000000</v>
    <i type="logical" name="LSPIRAL"> F  </i>
    <v name="QSPIRAL">      0.00000000      0.00000000      0.00000000</v>
    <i type="logical" name="LZEROZ"> F  </i>
   </separator>
   <separator name="electronic exchange-correlation" >
    <i type="logical" name="LASPH"> F  </i>
    <i type="logical" name="LMETAGGA"> F  </i>
   </separator>
   <separator name="electronic convergence" >
    <i type="int" name="NELM">   150</i>
    <i type="int" name="NELMDL">    -5</i>
    <i type="int" name="NELMIN">     6</i>
    <i name="ENINI">    520.00000000</i>
    <separator name="electronic convergence detail" >
     <i type="logical" name="LDIAG"> T  </i>
     <i type="logical" name="LSUBROT"> F  </i>
     <i name="WEIMIN">      0.00100000</i>
     <i name="EBREAK">      0.00000003</i>
     <i name="DEPER">      0.30000000</i>
     <i type="int" name="NRMM">     4</i>
     <i name="TIME">      0.40000000</i>
    </separator>
   </separator>
   <separator name="electronic mixer" >
    <i name="AMIX">      0.40000000</i>
    <i name="BMIX">      1.00000000</i>
    <i name="AMIN">      0.10000000</i>
    <i name="AMIX_MAG">      1.60000000</i>
    <i name="BMIX_MAG">      1.00000000</i>
    <separator name="electronic mixer details" >
     <i type="int" name="IMIX">     4</i>
     <i type="logical" name="MIXFIRST"> F  </i>
     <i type="int" name="MAXMIX">   -45</i>
     <i name="WC">    100.00000000</i>
     <i type="int" name="INIMIX">     1</i>
     <i type="int" name="MIXPRE">     1</i>
     <i type="int" name="MREMOVE">     5</i>
    </separator>
   </separator>
   <separator name="electronic dipolcorrection" >
    <i type="logical" name="LDIPOL"> F  </i>
    <i type="logical" name="LMONO"> F  </i>
    <i type="int" name="IDIPOL">     0</i>
    <i name="EPSILON">      1.00000000</i>
    <v name="DIPOL">   -100.00000000   -100.00000000   -100.00000000</v>
    <i name="EFIELD">      0.00000000</i>
   </separator>
  </separator>
  <separator name="grids" >
   <i type="int" name="NGX">    84</i>
   <i type="int" name="NGY">    84</i>
   <i type="int" name="NGZ">   250</i>
   <i type="int" name="NGXF">   168</i>
   <i type="int" name="NGYF">   168</i>
   <i type="int" name="NGZF">   500</i>
   <i type="logical" name="ADDGRID"> T  </i>
  </separator>
  <separator name="ionic" >
   <i type="int" name="NSW">   100</i>
   <i type="int" name="IBRION">     2</i>
   <i type="int" name="MDALGO">     0</i>
   <i type="int" name="ISIF">     2</i>
   <i name="PSTRESS">      0.00000000</i>
   <i name="EDIFFG">     -0.01000000</i>
   <i type="int" name="NFREE">     1</i>
   <i name="POTIM">      0.50000000</i>
   <i name="SMASS">     -3.00000000</i>
   <i name="SCALEE">      1.00000000</i>
  </separator>
  <separator name="ionic md" >
   <i name="TEBEG">      0.00010000</i>
   <i name="TEEND">      0.00010000</i>
   <i type="int" name="NBLOCK">     1</i>
   <i type="int" name="KBLOCK">   100</i>
   <i type="int" name="NPACO">   256</i>
   <i name="APACO">     10.00000000</i>
  </separator>
  <separator name="symmetry" >
   <i type="int" name="ISYM">     2</i>
   <i name="SYMPREC">      0.00001000</i>
  </separator>
  <separator name="dos" >
   <i type="int" name="LORBIT">    11</i>
   <v name="RWIGS">     -1.00000000</v>
   <i type="int" name="NEDOS">   301</i>
   <i name="EMIN">     10.00000000</i>
   <i name="EMAX">    -10.00000000</i>
   <i name="EFERMI">      0.00000000</i>
  </separator>
  <separator name="writing" >
   <i type="int" name="NWRITE">     2</i>
   <i type="logical" name="LWAVE"> T  </i>
   <i type="logical" name="LDOWNSAMPLE"> F  </i>
   <i type="logical" name="LCHARG"> T  </i>
   <i type="logical" name="LPARD"> F  </i>
   <i type="logical" name="LVTOT"> F  </i>
   <i type="logical" name="LVHAR"> F  </i>
   <i type="logical" name="LELF"> F  </i>
   <i type="logical" name="LOPTICS"> F  </i>
   <v name="STM">      0.00000000      0.00000000      0.00000000      0.00000000      0.00000000      0.00000000      0.00000000</v>
  </separator>
  <separator name="performance" >
   <i type="int" name="NPAR">     4</i>
   <i type="int" name="NSIM">     4</i>
   <i type="int" name="NBLK">    -1</i>
   <i type="logical" name="LPLANE"> T  </i>
   <i type="logical" name="LSCALAPACK"> F  </i>
   <i type="logical" name="LSCAAWARE"> F  </i>
   <i type="logical" name="LSCALU"> F  </i>
   <i type="logical" name="LASYNC"> F  </i>
   <i type="logical" name="LORBITALREAL"> F  </i>
  </separator>
  <separator name="miscellaneous" >
   <i type="int" name="IDIOT">     3</i>
   <i type="int" name="PHON_NSTRUCT">    -1</i>
   <i type="logical" name="LMUSIC"> F  </i>
   <v name="POMASS">      1.00000000</v>
   <v name="DARWINR">      0.00000000</v>
   <v name="DARWINV">      1.00000000</v>
   <i type="logical" name="LCORR"> T  </i>
  </separator>
  <i type="logical" name="GGA_COMPAT"> T  </i>
  <i type="logical" name="LBERRY"> F  </i>
  <i type="int" name="ICORELEVEL">     0</i>
  <i type="logical" name="LDAU"> F  </i>
  <i type="int" name="I_CONSTRAINED_M">     0</i>
  <separator name="electronic exchange-correlation" >
   <i type="string" name="GGA">--</i>
   <i type="int" name="VOSKOWN">     0</i>
   <i type="logical" name="LHFCALC"> F  </i>
   <i type="string" name="PRECFOCK"></i>
   <i type="logical" name="LSYMGRAD"> F  </i>
   <i type="logical" name="LHFONE"> F  </i>
   <i type="logical" name="LRHFCALC"> F  </i>
   <i type="logical" name="LTHOMAS"> F  </i>
   <i type="logical" name="LMODELHF"> F  </i>
   <i type="logical" name="LFOCKACE"> F  </i>
   <i name="ENCUT4O">     -1.00000000</i>
   <i type="int" name="EXXOEP">     0</i>
   <i type="int" name="FOURORBIT">     0</i>
   <i name="AEXX">      0.00000000</i>
   <i name="HFALPHA">      0.00000000</i>
   <i name="MCALPHA">      0.00000000</i>
   <i name="ALDAX">      1.00000000</i>
   <i name="AGGAX">      1.00000000</i>
   <i name="ALDAC">      1.00000000</i>
   <i name="AGGAC">      1.00000000</i>
   <i type="int" name="NKREDX">     1</i>
   <i type="int" name="NKREDY">     1</i>
   <i type="int" name="NKREDZ">     1</i>
   <i type="logical" name="SHIFTRED"> F  </i>
   <i type="logical" name="ODDONLY"> F  </i>
   <i type="logical" name="EVENONLY"> F  </i>
   <i type="int" name="LMAXFOCK">     0</i>
   <i type="int" name="NMAXFOCKAE">     0</i>
   <i type="logical" name="LFOCKAEDFT"> F  </i>
   <i name="HFSCREEN">      0.00000000</i>
   <i name="HFSCREENC">      0.00000000</i>
   <i type="int" name="NBANDSGWLOW">     0</i>
  </separator>
  <separator name="vdW DFT" >
   <i type="logical" name="LUSE_VDW"> F  </i>
   <i name="Zab_VDW">     -0.84910000</i>
   <i name="PARAM1">      0.12340000</i>
   <i name="PARAM2">      1.00000000</i>
   <i name="PARAM3">      0.00000000</i>
  </separator>
  <separator name="model GW" >
   <i type="int" name="MODEL_GW">     0</i>
   <i name="MODEL_EPS0">   1210.11657541</i>
   <i name="MODEL_ALPHA">      1.00000000</i>
  </separator>
  <separator name="linear response parameters" >
   <i type="logical" name="LEPSILON"> F  </i>
   <i type="logical" name="LRPA"> F  </i>
   <i type="logical" name="LNABLA"> F  </i>
   <i type="logical" name="LVEL"> F  </i>
   <i name="CSHIFT">      0.10000000</i>
   <i name="OMEGAMAX">     -1.00000000</i>
   <i name="DEG_THRESHOLD">      0.00200000</i>
   <i name="RTIME">     -0.10000000</i>
   <i name="WPLASMAI">      0.00000000</i>
   <v name="DFIELD">      0.00000000      0.00000000      0.00000000</v>
   <v name="WPLASMA">      0.00000000      0.00000000      0.00000000      0.00000000      0.00000000      0.00000000      0.00000000      0.00000000      0.00000000</v>
  </separator>
  <separator name="orbital magnetization" >
   <i type="logical" name="NUCIND"> F  </i>
   <v name="MAGPOS">      0.00000000      0.00000000      0.00000000</v>
   <i type="logical" name="LNICSALL"> T  </i>
   <i type="logical" name="ORBITALMAG"> F  </i>
   <i type="logical" name="LMAGBLOCH"> F  </i>
   <i type="logical" name="LCHIMAG"> F  </i>
   <i type="logical" name="LGAUGE"> T  </i>
   <i type="int" name="MAGATOM">     0</i>
   <v name="MAGDIPOL">      0.00000000      0.00000000      0.00000000</v>
   <v name="AVECCONST">      0.00000000      0.00000000      0.00000000</v>
  </separator>
  <separator name="response functions" >
   <i type="logical" name="LFINITE_TEMPERATURE"> F  </i>
   <i type="logical" name="LADDER"> F  </i>
   <i type="logical" name="LRPAFORCE"> F  </i>
   <i type="logical" name="LFXC"> F  </i>
   <i type="logical" name="LHARTREE"> T  </i>
   <i type="int" name="IBSE">     0</i>
   <v type="int" name="KPOINT">    -1     0     0     0</v>
   <i type="logical" name="LTCTC"> F  </i>
   <i type="logical" name="LTCTE"> F  </i>
   <i type="logical" name="LTETE"> F  </i>
   <i type="logical" name="LTRIPLET"> F  </i>
   <i type="logical" name="LFXCEPS"> F  </i>
   <i type="logical" name="LFXHEG"> F  </i>
   <i type="int" name="NATURALO">     2</i>
   <i type="logical" name="LHOLEGF"> F  </i>
   <i type="logical" name="L2ORDER"> F  </i>
   <i type="logical" name="LDMP1"> F  </i>
   <i type="logical" name="LMP2LT"> F  </i>
   <i type="logical" name="LSMP2LT"> F  </i>
   <i type="logical" name="LGWLF"> F  </i>
   <i name="ENCUTGW">     -2.00000000</i>
   <i name="ENCUTGWSOFT">     -2.00000000</i>
   <i name="ENCUTLF">     -1.00000000</i>
   <i type="logical" name="LESF_SPLINES"> F  </i>
   <i type="int" name="LMAXMP2">    -1</i>
   <i name="SCISSOR">      0.00000000</i>
   <i type="int" name="NOMEGA">     0</i>
   <i type="int" name="NOMEGAR">     0</i>
   <i type="int" name="NBANDSGW">    -1</i>
   <i type="int" name="NBANDSO">    -1</i>
   <i type="int" name="NBANDSV">    -1</i>
   <i type="int" name="NELMGW">     1</i>
   <i type="int" name="NELMHF">     1</i>
   <i type="int" name="DIM">     3</i>
   <i type="int" name="IESPILON">     4</i>
   <i type="int" name="ANTIRES">     0</i>
   <i name="OMEGAMAX">    -30.00000000</i>
   <i name="OMEGAMIN">    -30.00000000</i>
   <i name="OMEGATL">   -200.00000000</i>
   <i type="int" name="OMEGAGRID">     0</i>
   <i name="CSHIFT">     -0.10000000</i>
   <i type="logical" name="LSELFENERGY"> F  </i>
   <i type="logical" name="LSPECTRAL"> F  </i>
   <i type="logical" name="LSPECTRALGW"> F  </i>
   <i type="logical" name="LSINGLES"> F  </i>
   <i type="logical" name="LFERMIGW"> F  </i>
   <i type="logical" name="ODDONLYGW"> F  </i>
   <i type="logical" name="EVENONLYGW"> F  </i>
   <i type="int" name="NKREDLFX">     1</i>
   <i type="int" name="NKREDLFY">     1</i>
   <i type="int" name="NKREDLFZ">     1</i>
   <i type="int" name="MAXMEM">  2800</i>
   <i type="int" name="TELESCOPE">     0</i>
   <i type="int" name="NTAUPAR">    -1</i>
   <i type="int" name="NOMEGAPAR">    -1</i>
   <i name="DAMP_NEWTON">      0.80000001</i>
   <i name="LAMBDA">      1.00000000</i>
  </separator>
  <separator name="External order field" >
   <i name="OFIELD_KAPPA">      0.00000000</i>
   <v name="OFIELD_K">      0.00000000      0.00000000      0.00000000</v>
   <i name="OFIELD_Q6_NEAR">      0.00000000</i>
   <i name="OFIELD_Q6_FAR">      0.00000000</i>
   <i name="OFIELD_A">      0.00000000</i>
  </separator>
  <separator name="optional k-points parameters" >
   <i type="int" name="KPOINTS_OPT_MODE">     1</i>
   <i type="logical" name="LKPOINTS_OPT"> F  </i>
  </separator>
 </parameters>
 <atominfo>
  <atoms>       2 </atoms>
  <types>       1 </types>
  <array name="atoms" >
   <dimension dim="1">ion</dimension>
   <field type="string">element</field>
   <field type="int">atomtype</field>
   <set>
    <rc><c>H </c><c>   1</c></rc>
    <rc><c>H </c><c>   1</c></rc>
   </set>
  </array>
  <array name="atomtypes" >
   <dimension dim="1">type</dimension>
   <field type="int">atomspertype</field>
   <field type="string">element</field>
   <field>mass</field>
   <field>valence</field>
   <field type="string">pseudopotential</field>
   <set>
    <rc><c>   2</c><c>H </c><c>      1.00000000</c><c>      1.00000000</c><c>  PAW_PBE H 15Jun2001                   </c></rc>
   </set>
  </array>
 </atominfo>
 <structure name="initialpos" >
  <crystal>
   <varray name="basis" >
    <v>      11.10380000       0.00000000       0.00000000 </v>
    <v>       0.00000000      11.20020000       0.00000000 </v>
    <v>       0.00000000       0.00000000      32.43460000 </v>
   </varray>
   <i name="volume">   4033.72191804 </i>
   <varray name="rec_basis" >
    <v>       0.09005926       0.00000000       0.00000000 </v>
    <v>       0.00000000       0.08928412       0.00000000 </v>
    <v>       0.00000000       0.00000000       0.03083127 </v>
   </varray>
  </crystal>
  <varray name="positions" >
   <v>       0.51898000       0.46775000       0.48544000 </v>
   <v>       0.51898000       0.46775000       0.44486000 </v>
  </varray>
 </structure>
 <calculation>
  <scstep>
   <time name="total">    2.09    1.72</time>
   <energy>
    <i name="alphaZ">      0.00241580 </i>
    <i name="ewald">      8.69179074 </i>
    <i name="hartreedc">    -23.29348479 </i>
    <i name="XCdc">     33.96807886 </i>
    <i name="pawpsdc">    -21.83301014 </i>
    <i name="pawaedc">     22.89184627 </i>
    <i name="eentropy">     -0.04725122 </i>
    <i name="bandstr">     -7.50718243 </i>
    <i name="atom">     24.97394176 </i>
    <i name="e_fr_energy">     37.84714486 </i>
    <i name="e_wo_entrp">     37.89439608 </i>
    <i name="e_0_energy">     37.87077047 </i>
   </energy>
  </scstep>
  <scstep>
   <time name="total">    0.04    0.04</time>
   <energy>
    <i name="e_fr_energy">     30.43179489 </i>
    <i name="e_wo_entrp">     30.43179489 </i>
    <i name="e_0_energy">     30.43179489 </i>
   </energy>
  </scstep>
  <scstep>
   <time name="total">    0.04    0.04</time>
   <energy>
    <i name="e_fr_energy">     29.71738638 </i>
    <i name="e_wo_entrp">     29.71738638 </i>
    <i name="e_0_energy">     29.71738638 </i>
   </energy>
  </scstep>
  <scstep>
   <time name="total">    0.04    0.04</time>
   <energy>
    <i name="e_fr_energy">     29.70726548 </i>
    <i name="e_wo_entrp">     29.70726548 </i>
    <i name="e_0_energy">     29.70726548 </i>
   </energy>
  </scstep>
  <scstep>
   <time name="total">    1.85    1.64</time>
   <energy>
    <i name="e_fr_energy">     29.70726366 </i>
    <i name="e_wo_entrp">     29.70726366 </i>
    <i name="e_0_energy">     29.70726366 </i>
   </energy>
  </scstep>
  <scstep>
   <time name="total">    7.10    6.26</time>
   <energy>
    <i name="e_fr_energy">     -0.75577801 </i>
    <i name="e_wo_entrp">     -0.75577801 </i>
    <i name="e_0_energy">     -0.75577801 </i>
   </energy>
  </scstep>
  <scstep>
   <time name="total">    7.15    6.34</time>
   <energy>
    <i name="e_fr_energy">     -0.75915460 </i>
    <i name="e_wo_entrp">     -0.75915460 </i>
    <i name="e_0_energy">     -0.75915460 </i>
   </energy>
  </scstep>
  <scstep>
   <time name="total">    7.21    6.31</time>
   <energy>
    <i name="e_fr_energy">     -0.75944886 </i>
    <i name="e_wo_entrp">     -0.75944886 </i>
    <i name="e_0_energy">     -0.75944886 </i>
   </energy>
  </scstep>
  <scstep>
   <time name="total">    7.11    6.28</time>
   <energy>
    <i name="e_fr_energy">     -0.75948475 </i>
    <i name="e_wo_entrp">     -0.75948475 </i>
    <i name="e_0_energy">     -0.75948475 </i>
   </energy>
  </scstep>
  <scstep>
   <time name="total">    7.06    6.28</time>
   <energy>
    <i name="e_fr_energy">     -0.75949171 </i>
    <i name="e_wo_entrp">     -0.75949171 </i>
    <i name="e_0_energy">     -0.75949171 </i>
   </energy>
  </scstep>
  <scstep>
   <time name="total">    7.23    6.29</time>
   <energy>
    <i name="e_fr_energy">     -0.75949374 </i>
    <i name="e_wo_entrp">     -0.75949374 </i>
    <i name="e_0_energy">     -0.75949374 </i>
   </energy>
  </scstep>
  <scstep>
   <time name="total">    7.29    6.31</time>
   <energy>
    <i name="alphaZ">      0.00241580 </i>
    <i name="ewald">      8.69179074 </i>
    <i name="hartreedc">    -23.87382898 </i>
    <i name="XCdc">      4.97245766 </i>
    <i name="pawpsdc">      5.02461259 </i>
    <i name="pawaedc">     -5.04736219 </i>
    <i name="eentropy">     -0.00000000 </i>
    <i name="bandstr">    -15.50352174 </i>
    <i name="atom">     24.97394176 </i>
    <i name="e_fr_energy">     -0.75949436 </i>
    <i name="e_wo_entrp">     -0.75949436 </i>
    <i name="e_0_energy">     -0.75949436 </i>
   </energy>
  </scstep>
  <structure>
   <crystal>
    <varray name="basis" >
     <v>      11.10380000       0.00000000       0.00000000 </v>
     <v>       0.00000000      11.20020000       0.00000000 </v>
     <v>       0.00000000       0.00000000      32.43460000 </v>
    </varray>
    <i name="volume">   4033.72191804 </i>
    <varray name="rec_basis" >
     <v>       0.09005926       0.00000000       0.00000000 </v>
     <v>       0.00000000       0.08928412       0.00000000 </v>
     <v>       0.00000000       0.00000000       0.03083127 </v>
    </varray>
   </crystal>
   <varray name="positions" >
    <v>       0.51898000       0.46775000       0.48544000 </v>
    <v>       0.51898000       0.46775000       0.44486000 </v>
   </varray>
  </structure>
  <varray name="forces" >
   <v>      -0.00000000       0.00000000       3.49691603 </v>
   <v>       0.00000000       0.00000000      -3.49691603 </v>
  </varray>
  <varray name="stress" >
   <v>      -0.00836483       0.00000000       0.00000000 </v>
   <v>      -0.00000000      -0.00842245       0.00000000 </v>
   <v>       0.00000000       0.00000000       1.81905874 </v>
  </varray>
  <energy>
   <i name="e_fr_energy">     -0.75949436 </i>
   <i name="e_wo_entrp">     -0.75949436 </i>
   <i name="e_0_energy">     -0.75949436 </i>
  </energy>
  <time name="totalsc">  117.29  104.29</time>
 </calculation>
 <calculation>
  <scstep>
   <time name="total">    7.19    6.39</time>
   <energy>
    <i name="alphaZ">      0.00241580 </i>
    <i name="ewald">      6.43567473 </i>
    <i name="hartreedc">    -23.36122095 </i>
    <i name="XCdc">      4.87955367 </i>
    <i name="pawpsdc">      6.75006864 </i>
    <i name="pawaedc">     -6.76941938 </i>
    <i name="eentropy">     -0.00000000 </i>
    <i name="bandstr">    -12.74758612 </i>
    <i name="atom">     24.97394176 </i>
    <i name="e_fr_energy">      0.16342815 </i>
    <i name="e_wo_entrp">      0.16342815 </i>
    <i name="e_0_energy">      0.16342815 </i>
   </energy>
  </scstep>
  <scstep>
   <time name="total">    7.31    6.36</time>
   <energy>
    <i name="e_fr_energy">     -1.32295652 </i>
    <i name="e_wo_entrp">     -1.32295652 </i>
    <i name="e_0_energy">     -1.32295652 </i>
   </energy>
  </scstep>
  <scstep>
   <time name="total">    7.10    6.33</time>
   <energy>
    <i name="e_fr_energy">     -1.55431746 </i>
    <i name="e_wo_entrp">     -1.55431746 </i>
    <i name="e_0_energy">     -1.55431746 </i>
   </energy>
  </scstep>
  <scstep>
   <time name="total">    7.09    6.34</time>
   <energy>
    <i name="e_fr_energy">     -1.58010105 </i>
    <i name="e_wo_entrp">     -1.58010105 </i>
    <i name="e_0_energy">     -1.58010105 </i>
   </energy>
  </scstep>
  <scstep>
   <time name="total">    7.37    6.36</time>
   <energy>
    <i name="e_fr_energy">     -1.58416335 </i>
    <i name="e_wo_entrp">     -1.58416335 </i>
    <i name="e_0_energy">     -1.58416335 </i>
   </energy>
  </scstep>
  <scstep>
   <time name="total">    7.15    6.36</time>
   <energy>
    <i name="e_fr_energy">     -1.58497392 </i>
    <i name="e_wo_entrp">     -1.58497392 </i>
    <i name="e_0_energy">     -1.58497392 </i>
   </energy>
  </scstep>
  <scstep>
   <time name="total">    7.18    6.37</time>
   <energy>
    <i name="e_fr_energy">     -1.58517992 </i>
    <i name="e_wo_entrp">     -1.58517992 </i>
    <i name="e_0_energy">     -1.58517992 </i>
   </energy>
  </scstep>
  <scstep>
   <time name="total">    7.19    6.37</time>
   <energy>
    <i name="e_fr_energy">     -1.58522801 </i>
    <i name="e_wo_entrp">     -1.58522801 </i>
    <i name="e_0_energy">     -1.58522801 </i>
   </energy>
  </scstep>
  <scstep>
   <time name="total">    7.09    6.32</time>
   <energy>
    <i name="e_fr_energy">     -1.58523668 </i>
    <i name="e_wo_entrp">     -1.58523668 </i>
    <i name="e_0_energy">     -1.58523668 </i>
   </energy>
  </scstep>
  <scstep>
   <time name="total">    7.14    6.37</time>
   <energy>
    <i name="e_fr_energy">     -1.58523806 </i>
    <i name="e_wo_entrp">     -1.58523806 </i>
    <i name="e_0_energy">     -1.58523806 </i>
   </energy>
  </scstep>
  <scstep>
   <time name="total">    7.24    6.38</time>
   <energy>
    <i name="alphaZ">      0.00241580 </i>
    <i name="ewald">      6.43567473 </i>
    <i name="hartreedc">    -22.73469716 </i>
    <i name="XCdc">      4.89065707 </i>
    <i name="pawpsdc">      4.72566980 </i>
    <i name="pawaedc">     -4.74764851 </i>
    <i name="eentropy">     -0.00000000 </i>
    <i name="bandstr">    -15.13125174 </i>
    <i name="atom">     24.97394176 </i>
    <i name="e_fr_energy">     -1.58523827 </i>
    <i name="e_wo_entrp">     -1.58523827 </i>
    <i name="e_0_energy">     -1.58523827 </i>
   </energy>
  </scstep>
  <structure>
   <crystal>
    <varray name="basis" >
     <v>      11.10380000       0.00000000       0.00000000 </v>
     <v>       0.00000000      11.20020000       0.00000000 </v>
     <v>       0.00000000       0.00000000      32.43460000 </v>
    </varray>
    <i name="volume">   4033.72191804 </i>
    <varray name="rec_basis" >
     <v>       0.09005926       0.00000000       0.00000000 </v>
     <v>       0.00000000       0.08928412       0.00000000 </v>
     <v>       0.00000000       0.00000000       0.03083127 </v>
    </varray>
   </crystal>
   <varray name="positions" >
    <v>       0.51898000       0.46775000       0.49064125 </v>
    <v>       0.51898000       0.46775000       0.43965875 </v>
   </varray>
  </structure>
  <varray name="forces" >
   <v>      -0.00000000       0.00000000       1.61787778 </v>
   <v>       0.00000000       0.00000000      -1.61787778 </v>
  </varray>
  <varray name="stress" >
   <v>      -0.00809726       0.00000000       0.00000000 </v>
   <v>       0.00000000      -0.00814286       0.00000000 </v>
   <v>       0.00000000       0.00000000       1.05490901 </v>
  </varray>
  <energy>
   <i name="e_fr_energy">     -1.58523827 </i>
   <i name="e_wo_entrp">     -1.58523827 </i>
   <i name="e_0_energy">     -1.58523827 </i>
  </energy>
  <time name="totalsc">  131.09  115.39</time>
 </calculation>
 <calculation>
  <scstep>
   <time name="total">    7.38    6.45</time>
   <energy>
    <i name="alphaZ">      0.00241580 </i>
    <i name="ewald">      5.10989854 </i>
    <i name="hartreedc">    -22.36267780 </i>
    <i name="XCdc">      4.81974980 </i>
    <i name="pawpsdc">      6.06244131 </i>
    <i name="pawaedc">     -6.08173627 </i>
    <i name="eentropy">     -0.00000000 </i>
    <i name="bandstr">    -13.13633898 </i>
    <i name="atom">     24.97394176 </i>
    <i name="e_fr_energy">     -0.61230585 </i>
    <i name="e_wo_entrp">     -0.61230585 </i>
    <i name="e_0_energy">     -0.61230585 </i>
   </energy>
  </scstep>
  <scstep>
   <time name="total">    7.17    6.37</time>
   <energy>
    <i name="e_fr_energy">     -1.75476394 </i>
    <i name="e_wo_entrp">     -1.75476394 </i>
    <i name="e_0_energy">     -1.75476394 </i>
   </energy>
  </scstep>
  <scstep>
   <time name="total">    7.14    6.37</time>
   <energy>
    <i name="e_fr_energy">     -1.90658225 </i>
    <i name="e_wo_entrp">     -1.90658225 </i>
    <i name="e_0_energy">     -1.90658225 </i>
   </energy>
  </scstep>
  <scstep>
   <time name="total">    7.14    6.35</time>
   <energy>
    <i name="e_fr_energy">     -1.92184499 </i>
    <i name="e_wo_entrp">     -1.92184499 </i>
    <i name="e_0_energy">     -1.92184499 </i>
   </energy>
  </scstep>
  <scstep>
   <time name="total">    7.14    6.38</time>
   <energy>
    <i name="e_fr_energy">     -1.92394544 </i>
    <i name="e_wo_entrp">     -1.92394544 </i>
    <i name="e_0_energy">     -1.92394544 </i>
   </energy>
  </scstep>
  <scstep>
   <time name="total">    7.28    6.39</time>
   <energy>
    <i name="e_fr_energy">     -1.92435263 </i>
    <i name="e_wo_entrp">     -1.92435263 </i>
    <i name="e_0_energy">     -1.92435263 </i>
   </energy>
  </scstep>
  <scstep>
   <time name="total">    7.07    6.36</time>
   <energy>
    <i name="e_fr_energy">     -1.92446677 </i>
    <i name="e_wo_entrp">     -1.92446677 </i>
    <i name="e_0_energy">     -1.92446677 </i>
   </energy>
  </scstep>
  <scstep>
   <time name="total">    7.14    6.36</time>
   <energy>
    <i name="e_fr_energy">     -1.92449251 </i>
    <i name="e_wo_entrp">     -1.92449251 </i>
    <i name="e_0_energy">     -1.92449251 </i>
   </energy>
  </scstep>
  <scstep>
   <time name="total">    7.16    6.40</time>
   <energy>
    <i name="e_fr_energy">     -1.92449647 </i>
    <i name="e_wo_entrp">     -1.92449647 </i>
    <i name="e_0_energy">     -1.92449647 </i>
   </energy>
  </scstep>
  <scstep>
   <time name="total">    7.12    6.38</time>
   <energy>
    <i name="alphaZ">      0.00241580 </i>
    <i name="ewald">      5.10989854 </i>
    <i name="hartreedc">    -21.72643616 </i>
    <i name="XCdc">      4.81631181 </i>
    <i name="pawpsdc">      4.55702172 </i>
    <i name="pawaedc">     -4.57838647 </i>
    <i name="eentropy">     -0.00000000 </i>
    <i name="bandstr">    -15.07926399 </i>
    <i name="atom">     24.97394176 </i>
    <i name="e_fr_energy">     -1.92449699 </i>
    <i name="e_wo_entrp">     -1.92449699 </i>
    <i name="e_0_energy">     -1.92449699 </i>
   </energy>
  </scstep>
  <structure>
   <crystal>
    <varray name="basis" >
     <v>      11.10380000       0.00000000       0.00000000 </v>
     <v>       0.00000000      11.20020000       0.00000000 </v>
     <v>       0.00000000       0.00000000      32.43460000 </v>
    </varray>
    <i name="volume">   4033.72191804 </i>
    <varray name="rec_basis" >
     <v>       0.09005926       0.00000000       0.00000000 </v>
     <v>       0.00000000       0.08928412       0.00000000 </v>
     <v>       0.00000000       0.00000000       0.03083127 </v>
    </varray>
   </crystal>
   <varray name="positions" >
    <v>       0.51898000       0.46775000       0.49511960 </v>
    <v>       0.51898000       0.46775000       0.43518040 </v>
   </varray>
  </structure>
  <varray name="forces" >
   <v>       0.00000000       0.00000000       0.80564046 </v>
   <v>      -0.00000000       0.00000000      -0.80564046 </v>
  </varray>
  <varray name="stress" >
   <v>      -0.00801080       0.00000000       0.00000000 </v>
   <v>       0.00000000      -0.00805958       0.00000000 </v>
   <v>       0.00000000       0.00000000       0.61397748 </v>
  </varray>
  <energy>
   <i name="e_fr_energy">     -1.92449699 </i>
   <i name="e_wo_entrp">     -1.92449699 </i>
   <i name="e_0_energy">     -1.92449699 </i>
  </energy>
  <time name="totalsc">  123.19  109.01</time>
 </calculation>
 <calculation>
  <scstep>
   <time name="total">    7.21    6.38</time>
   <energy>
    <i name="alphaZ">      0.00241580 </i>
    <i name="ewald">      3.34610180 </i>
    <i name="hartreedc">    -20.22416489 </i>
    <i name="XCdc">      4.52255601 </i>
    <i name="pawpsdc">      7.72217099 </i>
    <i name="pawaedc">     -7.73495515 </i>
    <i name="eentropy">     -0.00000000 </i>
    <i name="bandstr">    -10.02565279 </i>
    <i name="atom">     24.97394176 </i>
    <i name="e_fr_energy">      2.58241354 </i>
    <i name="e_wo_entrp">      2.58241354 </i>
    <i name="e_0_energy">      2.58241354 </i>
   </energy>
  </scstep>
  <scstep>
   <time name="total">    7.11    6.31</time>
   <energy>
    <i name="e_fr_energy">     -1.35946374 </i>
    <i name="e_wo_entrp">     -1.35946374 </i>
    <i name="e_0_energy">     -1.35946374 </i>
   </energy>
  </scstep>
  <scstep>
   <time name="total">    7.24    6.36</time>
   <energy>
    <i name="e_fr_energy">     -2.03962249 </i>
    <i name="e_wo_entrp">     -2.03962249 </i>
    <i name="e_0_energy">     -2.03962249 </i>
   </energy>
  </scstep>
  <scstep>
   <time name="total">    7.15    6.37</time>
   <energy>
    <i name="e_fr_energy">     -2.14584906 </i>
    <i name="e_wo_entrp">     -2.14584906 </i>
    <i name="e_0_energy">     -2.14584906 </i>
   </energy>
  </scstep>
  <scstep>
   <time name="total">    7.16    6.36</time>
   <energy>
    <i name="e_fr_energy">     -2.16606535 </i>
    <i name="e_wo_entrp">     -2.16606535 </i>
    <i name="e_0_energy">     -2.16606535 </i>
   </energy>
  </scstep>
  <scstep>
   <time name="total">    7.11    6.33</time>
   <energy>
    <i name="e_fr_energy">     -2.17013671 </i>
    <i name="e_wo_entrp">     -2.17013671 </i>
    <i name="e_0_energy">     -2.17013671 </i>
   </energy>
  </scstep>
  <scstep>
   <time name="total">    7.08    6.32</time>
   <energy>
    <i name="e_fr_energy">     -2.17093100 </i>
    <i name="e_wo_entrp">     -2.17093100 </i>
    <i name="e_0_energy">     -2.17093100 </i>
   </energy>
  </scstep>
  <scstep>
   <time name="total">    7.10    6.31</time>
   <energy>
    <i name="e_fr_energy">     -2.17108243 </i>
    <i name="e_wo_entrp">     -2.17108243 </i>
    <i name="e_0_energy">     -2.17108243 </i>
   </energy>
  </scstep>
  <scstep>
   <time name="total">    7.09    6.33</time>
   <energy>
    <i name="e_fr_energy">     -2.17111122 </i>
    <i name="e_wo_entrp">     -2.17111122 </i>
    <i name="e_0_energy">     -2.17111122 </i>
   </energy>
  </scstep>
  <scstep>
   <time name="total">    7.20    6.32</time>
   <energy>
    <i name="e_fr_energy">     -2.17111633 </i>
    <i name="e_wo_entrp">     -2.17111633 </i>
    <i name="e_0_energy">     -2.17111633 </i>
   </energy>
  </scstep>
  <scstep>
   <time name="total">    7.13    6.35</time>
   <energy>
    <i name="alphaZ">      0.00241580 </i>
    <i name="ewald">      3.34610180 </i>
    <i name="hartreedc">    -20.07798844 </i>
    <i name="XCdc">      4.71984419 </i>
    <i name="pawpsdc">      4.36536872 </i>
    <i name="pawaedc">     -4.38600952 </i>
    <i name="eentropy">     -0.00000000 </i>
    <i name="bandstr">    -15.11479148 </i>
    <i name="atom">     24.97394176 </i>
    <i name="e_fr_energy">     -2.17111717 </i>
    <i name="e_wo_entrp">     -2.17111717 </i>
    <i name="e_0_energy">     -2.17111717 </i>
   </energy>
  </scstep>
  <structure>
   <crystal>
    <varray name="basis" >
     <v>      11.10380000       0.00000000       0.00000000 </v>
     <v>       0.00000000      11.20020000       0.00000000 </v>
     <v>       0.00000000       0.00000000      32.43460000 </v>
    </varray>
    <i name="volume">   4033.72191804 </i>
    <varray name="rec_basis" >
     <v>       0.09005926       0.00000000       0.00000000 </v>
     <v>       0.00000000       0.08928412       0.00000000 </v>
     <v>       0.00000000       0.00000000       0.03083127 </v>
    </varray>
   </crystal>
   <varray name="positions" >
    <v>       0.51898000       0.46775000       0.50407630 </v>
    <v>       0.51898000       0.46775000       0.42622370 </v>
   </varray>
  </structure>
  <varray name="forces" >
   <v>       0.00000000       0.00000000       0.18435516 </v>
   <v>      -0.00000000       0.00000000      -0.18435516 </v>
  </varray>
  <varray name="stress" >
   <v>      -0.00787926      -0.00000000       0.00000000 </v>
   <v>       0.00000000      -0.00792721       0.00000000 </v>
   <v>       0.00000000       0.00000000       0.17667510 </v>
  </varray>
  <energy>
   <i name="e_fr_energy">     -2.17111717 </i>
   <i name="e_wo_entrp">     -2.17111717 </i>
   <i name="e_0_energy">     -2.17111717 </i>
  </energy>
  <time name="totalsc">  130.05  115.06</time>
 </calculation>
 <calculation>
  <scstep>
   <time name="total">    7.29    6.41</time>
   <energy>
    <i name="alphaZ">      0.00241580 </i>
    <i name="ewald">      2.96145094 </i>
    <i name="hartreedc">    -19.94555027 </i>
    <i name="XCdc">      4.69143582 </i>
    <i name="pawpsdc">      4.81756663 </i>
    <i name="pawaedc">     -4.83705378 </i>
    <i name="eentropy">     -0.00000000 </i>
    <i name="bandstr">    -14.39348647 </i>
    <i name="atom">     24.97394176 </i>
    <i name="e_fr_energy">     -1.72927956 </i>
    <i name="e_wo_entrp">     -1.72927956 </i>
    <i name="e_0_energy">     -1.72927956 </i>
   </energy>
  </scstep>
  <scstep>
   <time name="total">    7.21    6.37</time>
   <energy>
    <i name="e_fr_energy">     -2.14547289 </i>
    <i name="e_wo_entrp">     -2.14547289 </i>
    <i name="e_0_energy">     -2.14547289 </i>
   </energy>
  </scstep>
  <scstep>
   <time name="total">    7.21    6.40</time>
   <energy>
    <i name="e_fr_energy">     -2.19234555 </i>
    <i name="e_wo_entrp">     -2.19234555 </i>
    <i name="e_0_energy">     -2.19234555 </i>
   </energy>
  </scstep>
  <scstep>
   <time name="total">    7.22    6.41</time>
   <energy>
    <i name="e_fr_energy">     -2.19609435 </i>
    <i name="e_wo_entrp">     -2.19609435 </i>
    <i name="e_0_energy">     -2.19609435 </i>
   </energy>
  </scstep>
  <scstep>
   <time name="total">    7.21    6.34</time>
   <energy>
    <i name="e_fr_energy">     -2.19649363 </i>
    <i name="e_wo_entrp">     -2.19649363 </i>
    <i name="e_0_energy">     -2.19649363 </i>
   </energy>
  </scstep>
  <scstep>
   <time name="total">    7.67    6.36</time>
   <energy>
    <i name="e_fr_energy">     -2.19655515 </i>
    <i name="e_wo_entrp">     -2.19655515 </i>
    <i name="e_0_energy">     -2.19655515 </i>
   </energy>
  </scstep>
  <scstep>
   <time name="total">    7.13    6.34</time>
   <energy>
    <i name="e_fr_energy">     -2.19657191 </i>
    <i name="e_wo_entrp">     -2.19657191 </i>
    <i name="e_0_energy">     -2.19657191 </i>
   </energy>
  </scstep>
  <scstep>
   <time name="total">    7.12    6.34</time>
   <energy>
    <i name="e_fr_energy">     -2.19657621 </i>
    <i name="e_wo_entrp">     -2.19657621 </i>
    <i name="e_0_energy">     -2.19657621 </i>
   </energy>
  </scstep>
  <scstep>
   <time name="total">    7.12    6.34</time>
   <energy>
    <i name="alphaZ">      0.00241580 </i>
    <i name="ewald">      2.96145094 </i>
    <i name="hartreedc">    -19.69086240 </i>
    <i name="XCdc">      4.70424648 </i>
    <i name="pawpsdc">      4.33585878 </i>
    <i name="pawaedc">     -4.35639074 </i>
    <i name="eentropy">     -0.00000000 </i>
    <i name="bandstr">    -15.12723745 </i>
    <i name="atom">     24.97394176 </i>
    <i name="e_fr_energy">     -2.19657683 </i>
    <i name="e_wo_entrp">     -2.19657683 </i>
    <i name="e_0_energy">     -2.19657683 </i>
   </energy>
  </scstep>
  <structure>
   <crystal>
    <varray name="basis" >
     <v>      11.10380000       0.00000000       0.00000000 </v>
     <v>       0.00000000      11.20020000       0.00000000 </v>
     <v>       0.00000000       0.00000000      32.43460000 </v>
    </varray>
    <i name="volume">   4033.72191804 </i>
    <varray name="rec_basis" >
     <v>       0.09005926       0.00000000       0.00000000 </v>
     <v>       0.00000000       0.08928412       0.00000000 </v>
     <v>       0.00000000       0.00000000       0.03083127 </v>
    </varray>
   </crystal>
   <varray name="positions" >
    <v>       0.51898000       0.46775000       0.50673404 </v>
    <v>       0.51898000       0.46775000       0.42356596 </v>
   </varray>
  </structure>
  <varray name="forces" >
   <v>       0.00000000       0.00000000       0.11599487 </v>
   <v>      -0.00000000       0.00000000      -0.11599487 </v>
  </varray>
  <varray name="stress" >
   <v>      -0.00785713      -0.00000000       0.00000000 </v>
   <v>       0.00000000      -0.00790345       0.00000000 </v>
   <v>       0.00000000       0.00000000       0.11667477 </v>
  </varray>
  <energy>
   <i name="e_fr_energy">     -2.19657683 </i>
   <i name="e_wo_entrp">     -2.19657683 </i>
   <i name="e_0_energy">     -2.19657683 </i>
  </energy>
  <time name="totalsc">  115.97  101.97</time>
 </calculation>
 <calculation>
  <scstep>
   <time name="total">    7.18    6.37</time>
   <energy>
    <i name="alphaZ">      0.00241580 </i>
    <i name="ewald">      2.31287421 </i>
    <i name="hartreedc">    -19.27923351 </i>
    <i name="XCdc">      4.61382723 </i>
    <i name="pawpsdc">      5.94427540 </i>
    <i name="pawaedc">     -5.96126947 </i>
    <i name="eentropy">     -0.00000000 </i>
    <i name="bandstr">    -13.02677396 </i>
    <i name="atom">     24.97394176 </i>
    <i name="e_fr_energy">     -0.41994254 </i>
    <i name="e_wo_entrp">     -0.41994254 </i>
    <i name="e_0_energy">     -0.41994254 </i>
   </energy>
  </scstep>
  <scstep>
   <time name="total">    7.13    6.33</time>
   <energy>
    <i name="e_fr_energy">     -1.99359437 </i>
    <i name="e_wo_entrp">     -1.99359437 </i>
    <i name="e_0_energy">     -1.99359437 </i>
   </energy>
  </scstep>
  <scstep>
   <time name="total">    7.10    6.32</time>
   <energy>
    <i name="e_fr_energy">     -2.19794338 </i>
    <i name="e_wo_entrp">     -2.19794338 </i>
    <i name="e_0_energy">     -2.19794338 </i>
   </energy>
  </scstep>
  <scstep>
   <time name="total">    7.15    6.32</time>
   <energy>
    <i name="e_fr_energy">     -2.21888106 </i>
    <i name="e_wo_entrp">     -2.21888106 </i>
    <i name="e_0_energy">     -2.21888106 </i>
   </energy>
  </scstep>
  <scstep>
   <time name="total">    7.14    6.34</time>
   <energy>
    <i name="e_fr_energy">     -2.22175601 </i>
    <i name="e_wo_entrp">     -2.22175601 </i>
    <i name="e_0_energy">     -2.22175601 </i>
   </energy>
  </scstep>
  <scstep>
   <time name="total">    7.07    6.30</time>
   <energy>
    <i name="e_fr_energy">     -2.22233943 </i>
    <i name="e_wo_entrp">     -2.22233943 </i>
    <i name="e_0_energy">     -2.22233943 </i>
   </energy>
  </scstep>
  <scstep>
   <time name="total">    7.17    6.31</time>
   <energy>
    <i name="e_fr_energy">     -2.22248932 </i>
    <i name="e_wo_entrp">     -2.22248932 </i>
    <i name="e_0_energy">     -2.22248932 </i>
   </energy>
  </scstep>
  <scstep>
   <time name="total">    7.13    6.33</time>
   <energy>
    <i name="e_fr_energy">     -2.22252085 </i>
    <i name="e_wo_entrp">     -2.22252085 </i>
    <i name="e_0_energy">     -2.22252085 </i>
   </energy>
  </scstep>
  <scstep>
   <time name="total">    7.15    6.34</time>
   <energy>
    <i name="e_fr_energy">     -2.22252576 </i>
    <i name="e_wo_entrp">     -2.22252576 </i>
    <i name="e_0_energy">     -2.22252576 </i>
   </energy>
  </scstep>
  <scstep>
   <time name="total">    7.09    6.37</time>
   <energy>
    <i name="alphaZ">      0.00241580 </i>
    <i name="ewald">      2.31287421 </i>
    <i name="hartreedc">    -19.03047534 </i>
    <i name="XCdc">      4.68491466 </i>
    <i name="pawpsdc">      4.29960581 </i>
    <i name="pawaedc">     -4.32000473 </i>
    <i name="eentropy">     -0.00000000 </i>
    <i name="bandstr">    -15.14579862 </i>
    <i name="atom">     24.97394176 </i>
    <i name="e_fr_energy">     -2.22252645 </i>
    <i name="e_wo_entrp">     -2.22252645 </i>
    <i name="e_0_energy">     -2.22252645 </i>
   </energy>
  </scstep>
  <structure>
   <crystal>
    <varray name="basis" >
     <v>      11.10380000       0.00000000       0.00000000 </v>
     <v>       0.00000000      11.20020000       0.00000000 </v>
     <v>       0.00000000       0.00000000      32.43460000 </v>
    </varray>
    <i name="volume">   4033.72191804 </i>
    <varray name="rec_basis" >
     <v>       0.09005926       0.00000000       0.00000000 </v>
     <v>       0.00000000       0.08928412       0.00000000 </v>
     <v>       0.00000000       0.00000000       0.03083127 </v>
    </varray>
   </crystal>
   <varray name="positions" >
    <v>       0.51898000       0.46775000       0.51204951 </v>
    <v>       0.51898000       0.46775000       0.41825049 </v>
   </varray>
  </structure>
  <varray name="forces" >
   <v>       0.00000000       0.00000000       0.04462391 </v>
   <v>      -0.00000000       0.00000000      -0.04462391 </v>
  </varray>
  <varray name="stress" >
   <v>      -0.00787709       0.00000000       0.00000000 </v>
   <v>      -0.00000000      -0.00792089       0.00000000 </v>
   <v>       0.00000000       0.00000000       0.04620800 </v>
  </varray>
  <energy>
   <i name="e_fr_energy">     -2.22252645 </i>
   <i name="e_wo_entrp">     -2.22252645 </i>
   <i name="e_0_energy">     -2.22252645 </i>
  </energy>
  <time name="totalsc">  122.01  108.25</time>
 </calculation>
 <calculation>
  <scstep>
   <time name="total">    7.24    6.41</time>
   <energy>
    <i name="alphaZ">      0.00241580 </i>
    <i name="ewald">      1.33959817 </i>
    <i name="hartreedc">    -16.96922062 </i>
    <i name="XCdc">      4.23615527 </i>
    <i name="pawpsdc">      6.87410157 </i>
    <i name="pawaedc">     -6.88342793 </i>
    <i name="eentropy">     -0.00000000 </i>
    <i name="bandstr">     -9.55935194 </i>
    <i name="atom">     24.97394176 </i>
    <i name="e_fr_energy">      4.01421208 </i>
    <i name="e_wo_entrp">      4.01421208 </i>
    <i name="e_0_energy">      4.01421208 </i>
   </energy>
  </scstep>
  <scstep>
   <time name="total">    7.17    6.35</time>
   <energy>
    <i name="e_fr_energy">     -1.06161850 </i>
    <i name="e_wo_entrp">     -1.06161850 </i>
    <i name="e_0_energy">     -1.06161850 </i>
   </energy>
  </scstep>
  <scstep>
   <time name="total">    7.06    6.34</time>
   <energy>
    <i name="e_fr_energy">     -2.00889775 </i>
    <i name="e_wo_entrp">     -2.00889775 </i>
    <i name="e_0_energy">     -2.00889775 </i>
   </energy>
  </scstep>
  <scstep>
   <time name="total">    7.02    6.30</time>
   <energy>
    <i name="e_fr_energy">     -2.18892487 </i>
    <i name="e_wo_entrp">     -2.18892487 </i>
    <i name="e_0_energy">     -2.18892487 </i>
   </energy>
  </scstep>
  <scstep>
   <time name="total">    7.06    6.34</time>
   <energy>
    <i name="e_fr_energy">     -2.22674633 </i>
    <i name="e_wo_entrp">     -2.22674633 </i>
    <i name="e_0_energy">     -2.22674633 </i>
   </energy>
  </scstep>
  <scstep>
   <time name="total">    7.07    6.33</time>
   <energy>
    <i name="e_fr_energy">     -2.23372426 </i>
    <i name="e_wo_entrp">     -2.23372426 </i>
    <i name="e_0_energy">     -2.23372426 </i>
   </energy>
  </scstep>
  <scstep>
   <time name="total">    7.10    6.37</time>
   <energy>
    <i name="e_fr_energy">     -2.23494578 </i>
    <i name="e_wo_entrp">     -2.23494578 </i>
    <i name="e_0_energy">     -2.23494578 </i>
   </energy>
  </scstep>
  <scstep>
   <time name="total">    7.24    6.33</time>
   <energy>
    <i name="e_fr_energy">     -2.23517483 </i>
    <i name="e_wo_entrp">     -2.23517483 </i>
    <i name="e_0_energy">     -2.23517483 </i>
   </energy>
  </scstep>
  <scstep>
   <time name="total">    7.15    6.33</time>
   <energy>
    <i name="e_fr_energy">     -2.23521960 </i>
    <i name="e_wo_entrp">     -2.23521960 </i>
    <i name="e_0_energy">     -2.23521960 </i>
   </energy>
  </scstep>
  <scstep>
   <time name="total">    7.09    6.32</time>
   <energy>
    <i name="e_fr_energy">     -2.23522808 </i>
    <i name="e_wo_entrp">     -2.23522808 </i>
    <i name="e_0_energy">     -2.23522808 </i>
   </energy>
  </scstep>
  <scstep>
   <time name="total">    7.12    6.38</time>
   <energy>
    <i name="e_fr_energy">     -2.23522958 </i>
    <i name="e_wo_entrp">     -2.23522958 </i>
    <i name="e_0_energy">     -2.23522958 </i>
   </energy>
  </scstep>
  <scstep>
   <time name="total">    7.18    6.37</time>
   <energy>
    <i name="alphaZ">      0.00241580 </i>
    <i name="ewald">      1.33959817 </i>
    <i name="hartreedc">    -18.04000037 </i>
    <i name="XCdc">      4.67153707 </i>
    <i name="pawpsdc">      4.27269428 </i>
    <i name="pawaedc">     -4.29300141 </i>
    <i name="eentropy">     -0.00000000 </i>
    <i name="bandstr">    -15.16241511 </i>
    <i name="atom">     24.97394176 </i>
    <i name="e_fr_energy">     -2.23522981 </i>
    <i name="e_wo_entrp">     -2.23522981 </i>
    <i name="e_0_energy">     -2.23522981 </i>
   </energy>
  </scstep>
  <structure>
   <crystal>
    <varray name="basis" >
     <v>      11.10380000       0.00000000       0.00000000 </v>
     <v>       0.00000000      11.20020000       0.00000000 </v>
     <v>       0.00000000       0.00000000      32.43460000 </v>
    </varray>
    <i name="volume">   4033.72191804 </i>
    <varray name="rec_basis" >
     <v>       0.09005926       0.00000000       0.00000000 </v>
     <v>       0.00000000       0.08928412       0.00000000 </v>
     <v>       0.00000000       0.00000000       0.03083127 </v>
    </varray>
   </crystal>
   <varray name="positions" >
    <v>       0.51898000       0.46775000       0.52268046 </v>
    <v>       0.51898000       0.46775000       0.40761954 </v>
   </varray>
  </structure>
  <varray name="forces" >
   <v>       0.00000000       0.00000000       0.00441895 </v>
   <v>      -0.00000000       0.00000000      -0.00441895 </v>
  </varray>
  <varray name="stress" >
   <v>      -0.00781270      -0.00000000       0.00000000 </v>
   <v>       0.00000000      -0.00785726       0.00000000 </v>
   <v>       0.00000000       0.00000000      -0.00166724 </v>
  </varray>
  <energy>
   <i name="e_fr_energy">     -2.23522981 </i>
   <i name="e_wo_entrp">     -2.23522981 </i>
   <i name="e_0_energy">     -2.23522981 </i>
  </energy>
  <time name="totalsc">  128.27  114.45</time>
  <eigenvalues>
   <array>
    <dimension dim="1">band</dimension>
    <dimension dim="2">kpoint</dimension>
    <dimension dim="3">spin</dimension>
    <field>eigene</field>
    <field>occ</field>
    <set>
     <set comment="spin 1">
      <set comment="kpoint 1">
       <r>   -7.6770    1.0000 </r>
       <r>   -7.4855    1.0000 </r>
       <r>   -0.1883    0.0000 </r>
       <r>    0.0215    0.0000 </r>
       <r>    0.0794    0.0000 </r>
       <r>    0.3956    0.0000 </r>
       <r>    0.4054    0.0000 </r>
       <r>    0.4287    0.0000 </r>
      </set>
     </set>
     <set comment="spin 2">
      <set comment="kpoint 1">
       <r>    0.0539    0.0000 </r>
       <r>    0.2053    0.0000 </r>
       <r>    0.2173    0.0000 </r>
       <r>    0.6039    0.0000 </r>
       <r>    0.6059    0.0000 </r>
       <r>    1.2174    0.0000 </r>
       <r>    1.2284    0.0000 </r>
       <r>    1.2516    0.0000 </r>
      </set>
     </set>
    </set>
   </array>
  </eigenvalues>
  <separator name="orbital magnetization" >
   <v name="MAGDIPOLOUT">      0.00000000      0.00000000      0.00000000</v>
  </separator>
  <dos>
   <i name="efermi">     -6.32363563 </i>
   <total>
    <array>
     <dimension dim="1">gridpoints</dimension>
     <dimension dim="2">spin</dimension>
     <field>energy</field>
     <field>total</field>
     <field>integrated</field>
     <set>
      <set comment="spin 1">
       <r>    -8.1770     0.0000     0.0000 </r>
       <r>    -8.1439     0.0000     0.0000 </r>
       <r>    -8.1108     0.0000     0.0000 </r>
       <r>    -8.0777     0.0100     0.0003 </r>
       <r>    -8.0446     0.0094     0.0006 </r>
       <r>    -8.0115     0.0181     0.0012 </r>
       <r>    -7.9784     0.0351     0.0024 </r>
       <r>    -7.9453     0.0678     0.0046 </r>
       <r>    -7.9122     0.1366     0.0092 </r>
       <r>    -7.8791     0.2556     0.0176 </r>
       <r>    -7.8460     0.4837     0.0336 </r>
       <r>    -7.8129     0.8960     0.0633 </r>
       <r>    -7.7798     1.5958     0.1161 </r>
       <r>    -7.7467     2.6537     0.2039 </r>
       <r>    -7.7136     3.9540     0.3348 </r>
       <r>    -7.6805     5.0515     0.5020 </r>
       <r>    -7.6474     5.4152     0.6812 </r>
       <r>    -7.6144     5.0498     0.8483 </r>
       <r>    -7.5813     4.5787     0.9998 </r>
       <r>    -7.5482     4.5781     1.1513 </r>
       <r>    -7.5151     5.0486     1.3184 </r>
       <r>    -7.4820     5.4150     1.4976 </r>
       <r>    -7.4489     5.0532     1.6649 </r>
       <r>    -7.4158     3.9569     1.7958 </r>
       <r>    -7.3827     2.6563     1.8837 </r>
       <r>    -7.3496     1.5977     1.9366 </r>
       <r>    -7.3165     0.8972     1.9663 </r>
       <r>    -7.2834     0.4844     1.9823 </r>
       <r>    -7.2503     0.2504     1.9910 </r>
       <r>    -7.2172     0.1308     1.9953 </r>
       <r>    -7.1841     0.0679     1.9976 </r>
       <r>    -7.1510     0.0352     1.9988 </r>
       <r>    -7.1179     0.0182     1.9994 </r>
       <r>    -7.0848     0.0000     2.0000 </r>
       <r>    -7.0517     0.0000     2.0000 </r>
       <r>    -7.0186     0.0000     2.0000 </r>
       <r>    -6.9855     0.0000     2.0000 </r>
       <r>    -6.9524     0.0000     2.0000 </r>
       <r>    -6.9194     0.0000     2.0000 </r>
       <r>    -6.8863     0.0000     2.0000 </r>
       <r>    -6.8532     0.0000     2.0000 </r>
       <r>    -6.8201     0.0000     2.0000 </r>
       <r>    -6.7870     0.0000     2.0000 </r>
       <r>    -6.7539     0.0000     2.0000 </r>
       <r>    -6.7208     0.0000     2.0000 </r>
       <r>    -6.6877     0.0000     2.0000 </r>
       <r>    -6.6546     0.0000     2.0000 </r>
       <r>    -6.6215     0.0000     2.0000 </r>
       <r>    -6.5884     0.0000     2.0000 </r>
       <r>    -6.5553     0.0000     2.0000 </r>
       <r>    -6.5222     0.0000     2.0000 </r>
       <r>    -6.4891     0.0000     2.0000 </r>
       <r>    -6.4560     0.0000     2.0000 </r>
       <r>    -6.4229     0.0000     2.0000 </r>
       <r>    -6.3898     0.0000     2.0000 </r>
       <r>    -6.3567     0.0000     2.0000 </r>
       <r>    -6.3236     0.0000     2.0000 </r>
       <r>    -6.2905     0.0000     2.0000 </r>
       <r>    -6.2574     0.0000     2.0000 </r>
       <r>    -6.2243     0.0000     2.0000 </r>
       <r>    -6.1913     0.0000     2.0000 </r>
       <r>    -6.1582     0.0000     2.0000 </r>
       <r>    -6.1251     0.0000     2.0000 </r>
       <r>    -6.0920     0.0000     2.0000 </r>
       <r>    -6.0589     0.0000     2.0000 </r>
       <r>    -6.0258     0.0000     2.0000 </r>
       <r>    -5.9927     0.0000     2.0000 </r>
       <r>    -5.9596     0.0000     2.0000 </r>
       <r>    -5.9265     0.0000     2.0000 </r>
       <r>    -5.8934     0.0000     2.0000 </r>
       <r>    -5.8603     0.0000     2.0000 </r>
       <r>    -5.8272     0.0000     2.0000 </r>
       <r>    -5.7941     0.0000     2.0000 </r>
       <r>    -5.7610     0.0000     2.0000 </r>
       <r>    -5.7279     0.0000     2.0000 </r>
       <r>    -5.6948     0.0000     2.0000 </r>
       <r>    -5.6617     0.0000     2.0000 </r>
       <r>    -5.6286     0.0000     2.0000 </r>
       <r>    -5.5955     0.0000     2.0000 </r>
       <r>    -5.5624     0.0000     2.0000 </r>
       <r>    -5.5293     0.0000     2.0000 </r>
       <r>    -5.4963     0.0000     2.0000 </r>
       <r>    -5.4632     0.0000     2.0000 </r>
       <r>    -5.4301     0.0000     2.0000 </r>
       <r>    -5.3970     0.0000     2.0000 </r>
       <r>    -5.3639     0.0000     2.0000 </r>
       <r>    -5.3308     0.0000     2.0000 </r>
       <r>    -5.2977     0.0000     2.0000 </r>
       <r>    -5.2646     0.0000     2.0000 </r>
       <r>    -5.2315     0.0000     2.0000 </r>
       <r>    -5.1984     0.0000     2.0000 </r>
       <r>    -5.1653     0.0000     2.0000 </r>
       <r>    -5.1322     0.0000     2.0000 </r>
       <r>    -5.0991     0.0000     2.0000 </r>
       <r>    -5.0660     0.0000     2.0000 </r>
       <r>    -5.0329     0.0000     2.0000 </r>
       <r>    -4.9998     0.0000     2.0000 </r>
       <r>    -4.9667     0.0000     2.0000 </r>
       <r>    -4.9336     0.0000     2.0000 </r>
       <r>    -4.9005     0.0000     2.0000 </r>
       <r>    -4.8674     0.0000     2.0000 </r>
       <r>    -4.8343     0.0000     2.0000 </r>
       <r>    -4.8013     0.0000     2.0000 </r>
       <r>    -4.7682     0.0000     2.0000 </r>
       <r>    -4.7351     0.0000     2.0000 </r>
       <r>    -4.7020     0.0000     2.0000 </r>
       <r>    -4.6689     0.0000     2.0000 </r>
       <r>    -4.6358     0.0000     2.0000 </r>
       <r>    -4.6027     0.0000     2.0000 </r>
       <r>    -4.5696     0.0000     2.0000 </r>
       <r>    -4.5365     0.0000     2.0000 </r>
       <r>    -4.5034     0.0000     2.0000 </r>
       <r>    -4.4703     0.0000     2.0000 </r>
       <r>    -4.4372     0.0000     2.0000 </r>
       <r>    -4.4041     0.0000     2.0000 </r>
       <r>    -4.3710     0.0000     2.0000 </r>
       <r>    -4.3379     0.0000     2.0000 </r>
       <r>    -4.3048     0.0000     2.0000 </r>
       <r>    -4.2717     0.0000     2.0000 </r>
       <r>    -4.2386     0.0000     2.0000 </r>
       <r>    -4.2055     0.0000     2.0000 </r>
       <r>    -4.1724     0.0000     2.0000 </r>
       <r>    -4.1393     0.0000     2.0000 </r>
       <r>    -4.1063     0.0000     2.0000 </r>
       <r>    -4.0732     0.0000     2.0000 </r>
       <r>    -4.0401     0.0000     2.0000 </r>
       <r>    -4.0070     0.0000     2.0000 </r>
       <r>    -3.9739     0.0000     2.0000 </r>
       <r>    -3.9408     0.0000     2.0000 </r>
       <r>    -3.9077     0.0000     2.0000 </r>
       <r>    -3.8746     0.0000     2.0000 </r>
       <r>    -3.8415     0.0000     2.0000 </r>
       <r>    -3.8084     0.0000     2.0000 </r>
       <r>    -3.7753     0.0000     2.0000 </r>
       <r>    -3.7422     0.0000     2.0000 </r>
       <r>    -3.7091     0.0000     2.0000 </r>
       <r>    -3.6760     0.0000     2.0000 </r>
       <r>    -3.6429     0.0000     2.0000 </r>
       <r>    -3.6098     0.0000     2.0000 </r>
       <r>    -3.5767     0.0000     2.0000 </r>
       <r>    -3.5436     0.0000     2.0000 </r>
       <r>    -3.5105     0.0000     2.0000 </r>
       <r>    -3.4774     0.0000     2.0000 </r>
       <r>    -3.4443     0.0000     2.0000 </r>
       <r>    -3.4113     0.0000     2.0000 </r>
       <r>    -3.3782     0.0000     2.0000 </r>
       <r>    -3.3451     0.0000     2.0000 </r>
       <r>    -3.3120     0.0000     2.0000 </r>
       <r>    -3.2789     0.0000     2.0000 </r>
       <r>    -3.2458     0.0000     2.0000 </r>
       <r>    -3.2127     0.0000     2.0000 </r>
       <r>    -3.1796     0.0000     2.0000 </r>
       <r>    -3.1465     0.0000     2.0000 </r>
       <r>    -3.1134     0.0000     2.0000 </r>
       <r>    -3.0803     0.0000     2.0000 </r>
       <r>    -3.0472     0.0000     2.0000 </r>
       <r>    -3.0141     0.0000     2.0000 </r>
       <r>    -2.9810     0.0000     2.0000 </r>
       <r>    -2.9479     0.0000     2.0000 </r>
       <r>    -2.9148     0.0000     2.0000 </r>
       <r>    -2.8817     0.0000     2.0000 </r>
       <r>    -2.8486     0.0000     2.0000 </r>
       <r>    -2.8155     0.0000     2.0000 </r>
       <r>    -2.7824     0.0000     2.0000 </r>
       <r>    -2.7493     0.0000     2.0000 </r>
       <r>    -2.7163     0.0000     2.0000 </r>
       <r>    -2.6832     0.0000     2.0000 </r>
       <r>    -2.6501     0.0000     2.0000 </r>
       <r>    -2.6170     0.0000     2.0000 </r>
       <r>    -2.5839     0.0000     2.0000 </r>
       <r>    -2.5508     0.0000     2.0000 </r>
       <r>    -2.5177     0.0000     2.0000 </r>
       <r>    -2.4846     0.0000     2.0000 </r>
       <r>    -2.4515     0.0000     2.0000 </r>
       <r>    -2.4184     0.0000     2.0000 </r>
       <r>    -2.3853     0.0000     2.0000 </r>
       <r>    -2.3522     0.0000     2.0000 </r>
       <r>    -2.3191     0.0000     2.0000 </r>
       <r>    -2.2860     0.0000     2.0000 </r>
       <r>    -2.2529     0.0000     2.0000 </r>
       <r>    -2.2198     0.0000     2.0000 </r>
       <r>    -2.1867     0.0000     2.0000 </r>
       <r>    -2.1536     0.0000     2.0000 </r>
       <r>    -2.1205     0.0000     2.0000 </r>
       <r>    -2.0874     0.0000     2.0000 </r>
       <r>    -2.0543     0.0000     2.0000 </r>
       <r>    -2.0213     0.0000     2.0000 </r>
       <r>    -1.9882     0.0000     2.0000 </r>
       <r>    -1.9551     0.0000     2.0000 </r>
       <r>    -1.9220     0.0000     2.0000 </r>
       <r>    -1.8889     0.0000     2.0000 </r>
       <r>    -1.8558     0.0000     2.0000 </r>
       <r>    -1.8227     0.0000     2.0000 </r>
       <r>    -1.7896     0.0000     2.0000 </r>
       <r>    -1.7565     0.0000     2.0000 </r>
       <r>    -1.7234     0.0000     2.0000 </r>
       <r>    -1.6903     0.0000     2.0000 </r>
       <r>    -1.6572     0.0000     2.0000 </r>
       <r>    -1.6241     0.0000     2.0000 </r>
       <r>    -1.5910     0.0000     2.0000 </r>
       <r>    -1.5579     0.0000     2.0000 </r>
       <r>    -1.5248     0.0000     2.0000 </r>
       <r>    -1.4917     0.0000     2.0000 </r>
       <r>    -1.4586     0.0000     2.0000 </r>
       <r>    -1.4255     0.0000     2.0000 </r>
       <r>    -1.3924     0.0000     2.0000 </r>
       <r>    -1.3593     0.0000     2.0000 </r>
       <r>    -1.3263     0.0000     2.0000 </r>
       <r>    -1.2932     0.0000     2.0000 </r>
       <r>    -1.2601     0.0000     2.0000 </r>
       <r>    -1.2270     0.0000     2.0000 </r>
       <r>    -1.1939     0.0000     2.0000 </r>
       <r>    -1.1608     0.0000     2.0000 </r>
       <r>    -1.1277     0.0000     2.0000 </r>
       <r>    -1.0946     0.0000     2.0000 </r>
       <r>    -1.0615     0.0000     2.0000 </r>
       <r>    -1.0284     0.0000     2.0000 </r>
       <r>    -0.9953     0.0000     2.0000 </r>
       <r>    -0.9622     0.0000     2.0000 </r>
       <r>    -0.9291     0.0000     2.0000 </r>
       <r>    -0.8960     0.0000     2.0000 </r>
       <r>    -0.8629     0.0000     2.0000 </r>
       <r>    -0.8298     0.0000     2.0000 </r>
       <r>    -0.7967     0.0000     2.0000 </r>
       <r>    -0.7636     0.0000     2.0000 </r>
       <r>    -0.7305     0.0000     2.0000 </r>
       <r>    -0.6974     0.0000     2.0000 </r>
       <r>    -0.6643     0.0000     2.0000 </r>
       <r>    -0.6313     0.0000     2.0000 </r>
       <r>    -0.5982     0.0083     2.0003 </r>
       <r>    -0.5651     0.0078     2.0005 </r>
       <r>    -0.5320     0.0151     2.0010 </r>
       <r>    -0.4989     0.0292     2.0020 </r>
       <r>    -0.4658     0.0565     2.0039 </r>
       <r>    -0.4327     0.1089     2.0075 </r>
       <r>    -0.3996     0.2156     2.0146 </r>
       <r>    -0.3665     0.4031     2.0280 </r>
       <r>    -0.3334     0.7598     2.0531 </r>
       <r>    -0.3003     1.3638     2.0982 </r>
       <r>    -0.2672     2.3195     2.1750 </r>
       <r>    -0.2341     3.5779     2.2934 </r>
       <r>    -0.2010     4.7836     2.4517 </r>
       <r>    -0.1679     5.3710     2.6295 </r>
       <r>    -0.1348     5.1511     2.8000 </r>
       <r>    -0.1017     4.6514     2.9539 </r>
       <r>    -0.0686     4.6276     3.1070 </r>
       <r>    -0.0355     5.4860     3.2886 </r>
       <r>    -0.0024     7.0681     3.5225 </r>
       <r>     0.0307     8.6475     3.8087 </r>
       <r>     0.0637     9.3587     4.1184 </r>
       <r>     0.0968     8.7320     4.4074 </r>
       <r>     0.1299     7.0340     4.6402 </r>
       <r>     0.1630     5.0519     4.8074 </r>
       <r>     0.1961     3.5308     4.9243 </r>
       <r>     0.2292     2.8292     5.0184 </r>
       <r>     0.2623     3.0866     5.1205 </r>
       <r>     0.2954     4.4023     5.2662 </r>
       <r>     0.3285     6.8741     5.4937 </r>
       <r>     0.3616    10.2396     5.8326 </r>
       <r>     0.3947    13.3900     6.2757 </r>
       <r>     0.4278    14.6149     6.7600 </r>
       <r>     0.4609    13.1073     7.1938 </r>
       <r>     0.4940     9.8019     7.5187 </r>
       <r>     0.5271     6.3662     7.7294 </r>
       <r>     0.5602     3.7520     7.8535 </r>
       <r>     0.5933     2.0830     7.9225 </r>
       <r>     0.6264     1.1177     7.9595 </r>
       <r>     0.6595     0.5886     7.9789 </r>
       <r>     0.6926     0.3069     7.9891 </r>
       <r>     0.7257     0.1592     7.9944 </r>
       <r>     0.7587     0.0824     7.9971 </r>
       <r>     0.7918     0.0426     7.9985 </r>
       <r>     0.8249     0.0102     7.9996 </r>
       <r>     0.8580     0.0000     8.0000 </r>
       <r>     0.8911     0.0000     8.0000 </r>
       <r>     0.9242     0.0000     8.0000 </r>
       <r>     0.9573     0.0000     8.0000 </r>
       <r>     0.9904     0.0000     8.0000 </r>
       <r>     1.0235     0.0000     8.0000 </r>
       <r>     1.0566     0.0000     8.0000 </r>
       <r>     1.0897     0.0000     8.0000 </r>
       <r>     1.1228     0.0000     8.0000 </r>
       <r>     1.1559     0.0000     8.0000 </r>
       <r>     1.1890     0.0000     8.0000 </r>
       <r>     1.2221     0.0000     8.0000 </r>
       <r>     1.2552     0.0000     8.0000 </r>
       <r>     1.2883     0.0000     8.0000 </r>
       <r>     1.3214     0.0000     8.0000 </r>
       <r>     1.3545     0.0000     8.0000 </r>
       <r>     1.3876     0.0000     8.0000 </r>
       <r>     1.4207     0.0000     8.0000 </r>
       <r>     1.4537     0.0000     8.0000 </r>
       <r>     1.4868     0.0000     8.0000 </r>
       <r>     1.5199     0.0000     8.0000 </r>
       <r>     1.5530     0.0000     8.0000 </r>
       <r>     1.5861     0.0000     8.0000 </r>
       <r>     1.6192     0.0000     8.0000 </r>
       <r>     1.6523     0.0000     8.0000 </r>
       <r>     1.6854     0.0000     8.0000 </r>
       <r>     1.7185     0.0000     8.0000 </r>
       <r>     1.7516     0.0000     8.0000 </r>
      </set>
      <set comment="spin 2">
       <r>    -8.1770     0.0000     0.0000 </r>
       <r>    -8.1439     0.0000     0.0000 </r>
       <r>    -8.1108     0.0000     0.0000 </r>
       <r>    -8.0777     0.0000     0.0000 </r>
       <r>    -8.0446     0.0000     0.0000 </r>
       <r>    -8.0115     0.0000     0.0000 </r>
       <r>    -7.9784     0.0000     0.0000 </r>
       <r>    -7.9453     0.0000     0.0000 </r>
       <r>    -7.9122     0.0000     0.0000 </r>
       <r>    -7.8791     0.0000     0.0000 </r>
       <r>    -7.8460     0.0000     0.0000 </r>
       <r>    -7.8129     0.0000     0.0000 </r>
       <r>    -7.7798     0.0000     0.0000 </r>
       <r>    -7.7467     0.0000     0.0000 </r>
       <r>    -7.7136     0.0000     0.0000 </r>
       <r>    -7.6805     0.0000     0.0000 </r>
       <r>    -7.6474     0.0000     0.0000 </r>
       <r>    -7.6144     0.0000     0.0000 </r>
       <r>    -7.5813     0.0000     0.0000 </r>
       <r>    -7.5482     0.0000     0.0000 </r>
       <r>    -7.5151     0.0000     0.0000 </r>
       <r>    -7.4820     0.0000     0.0000 </r>
       <r>    -7.4489     0.0000     0.0000 </r>
       <r>    -7.4158     0.0000     0.0000 </r>
       <r>    -7.3827     0.0000     0.0000 </r>
       <r>    -7.3496     0.0000     0.0000 </r>
       <r>    -7.3165     0.0000     0.0000 </r>
       <r>    -7.2834     0.0000     0.0000 </r>
       <r>    -7.2503     0.0000     0.0000 </r>
       <r>    -7.2172     0.0000     0.0000 </r>
       <r>    -7.1841     0.0000     0.0000 </r>
       <r>    -7.1510     0.0000     0.0000 </r>
       <r>    -7.1179     0.0000     0.0000 </r>
       <r>    -7.0848     0.0000     0.0000 </r>
       <r>    -7.0517     0.0000     0.0000 </r>
       <r>    -7.0186     0.0000     0.0000 </r>
       <r>    -6.9855     0.0000     0.0000 </r>
       <r>    -6.9524     0.0000     0.0000 </r>
       <r>    -6.9194     0.0000     0.0000 </r>
       <r>    -6.8863     0.0000     0.0000 </r>
       <r>    -6.8532     0.0000     0.0000 </r>
       <r>    -6.8201     0.0000     0.0000 </r>
       <r>    -6.7870     0.0000     0.0000 </r>
       <r>    -6.7539     0.0000     0.0000 </r>
       <r>    -6.7208     0.0000     0.0000 </r>
       <r>    -6.6877     0.0000     0.0000 </r>
       <r>    -6.6546     0.0000     0.0000 </r>
       <r>    -6.6215     0.0000     0.0000 </r>
       <r>    -6.5884     0.0000     0.0000 </r>
       <r>    -6.5553     0.0000     0.0000 </r>
       <r>    -6.5222     0.0000     0.0000 </r>
       <r>    -6.4891     0.0000     0.0000 </r>
       <r>    -6.4560     0.0000     0.0000 </r>
       <r>    -6.4229     0.0000     0.0000 </r>
       <r>    -6.3898     0.0000     0.0000 </r>
       <r>    -6.3567     0.0000     0.0000 </r>
       <r>    -6.3236     0.0000     0.0000 </r>
       <r>    -6.2905     0.0000     0.0000 </r>
       <r>    -6.2574     0.0000     0.0000 </r>
       <r>    -6.2243     0.0000     0.0000 </r>
       <r>    -6.1913     0.0000     0.0000 </r>
       <r>    -6.1582     0.0000     0.0000 </r>
       <r>    -6.1251     0.0000     0.0000 </r>
       <r>    -6.0920     0.0000     0.0000 </r>
       <r>    -6.0589     0.0000     0.0000 </r>
       <r>    -6.0258     0.0000     0.0000 </r>
       <r>    -5.9927     0.0000     0.0000 </r>
       <r>    -5.9596     0.0000     0.0000 </r>
       <r>    -5.9265     0.0000     0.0000 </r>
       <r>    -5.8934     0.0000     0.0000 </r>
       <r>    -5.8603     0.0000     0.0000 </r>
       <r>    -5.8272     0.0000     0.0000 </r>
       <r>    -5.7941     0.0000     0.0000 </r>
       <r>    -5.7610     0.0000     0.0000 </r>
       <r>    -5.7279     0.0000     0.0000 </r>
       <r>    -5.6948     0.0000     0.0000 </r>
       <r>    -5.6617     0.0000     0.0000 </r>
       <r>    -5.6286     0.0000     0.0000 </r>
       <r>    -5.5955     0.0000     0.0000 </r>
       <r>    -5.5624     0.0000     0.0000 </r>
       <r>    -5.5293     0.0000     0.0000 </r>
       <r>    -5.4963     0.0000     0.0000 </r>
       <r>    -5.4632     0.0000     0.0000 </r>
       <r>    -5.4301     0.0000     0.0000 </r>
       <r>    -5.3970     0.0000     0.0000 </r>
       <r>    -5.3639     0.0000     0.0000 </r>
       <r>    -5.3308     0.0000     0.0000 </r>
       <r>    -5.2977     0.0000     0.0000 </r>
       <r>    -5.2646     0.0000     0.0000 </r>
       <r>    -5.2315     0.0000     0.0000 </r>
       <r>    -5.1984     0.0000     0.0000 </r>
       <r>    -5.1653     0.0000     0.0000 </r>
       <r>    -5.1322     0.0000     0.0000 </r>
       <r>    -5.0991     0.0000     0.0000 </r>
       <r>    -5.0660     0.0000     0.0000 </r>
       <r>    -5.0329     0.0000     0.0000 </r>
       <r>    -4.9998     0.0000     0.0000 </r>
       <r>    -4.9667     0.0000     0.0000 </r>
       <r>    -4.9336     0.0000     0.0000 </r>
       <r>    -4.9005     0.0000     0.0000 </r>
       <r>    -4.8674     0.0000     0.0000 </r>
       <r>    -4.8343     0.0000     0.0000 </r>
       <r>    -4.8013     0.0000     0.0000 </r>
       <r>    -4.7682     0.0000     0.0000 </r>
       <r>    -4.7351     0.0000     0.0000 </r>
       <r>    -4.7020     0.0000     0.0000 </r>
       <r>    -4.6689     0.0000     0.0000 </r>
       <r>    -4.6358     0.0000     0.0000 </r>
       <r>    -4.6027     0.0000     0.0000 </r>
       <r>    -4.5696     0.0000     0.0000 </r>
       <r>    -4.5365     0.0000     0.0000 </r>
       <r>    -4.5034     0.0000     0.0000 </r>
       <r>    -4.4703     0.0000     0.0000 </r>
       <r>    -4.4372     0.0000     0.0000 </r>
       <r>    -4.4041     0.0000     0.0000 </r>
       <r>    -4.3710     0.0000     0.0000 </r>
       <r>    -4.3379     0.0000     0.0000 </r>
       <r>    -4.3048     0.0000     0.0000 </r>
       <r>    -4.2717     0.0000     0.0000 </r>
       <r>    -4.2386     0.0000     0.0000 </r>
       <r>    -4.2055     0.0000     0.0000 </r>
       <r>    -4.1724     0.0000     0.0000 </r>
       <r>    -4.1393     0.0000     0.0000 </r>
       <r>    -4.1063     0.0000     0.0000 </r>
       <r>    -4.0732     0.0000     0.0000 </r>
       <r>    -4.0401     0.0000     0.0000 </r>
       <r>    -4.0070     0.0000     0.0000 </r>
       <r>    -3.9739     0.0000     0.0000 </r>
       <r>    -3.9408     0.0000     0.0000 </r>
       <r>    -3.9077     0.0000     0.0000 </r>
       <r>    -3.8746     0.0000     0.0000 </r>
       <r>    -3.8415     0.0000     0.0000 </r>
       <r>    -3.8084     0.0000     0.0000 </r>
       <r>    -3.7753     0.0000     0.0000 </r>
       <r>    -3.7422     0.0000     0.0000 </r>
       <r>    -3.7091     0.0000     0.0000 </r>
       <r>    -3.6760     0.0000     0.0000 </r>
       <r>    -3.6429     0.0000     0.0000 </r>
       <r>    -3.6098     0.0000     0.0000 </r>
       <r>    -3.5767     0.0000     0.0000 </r>
       <r>    -3.5436     0.0000     0.0000 </r>
       <r>    -3.5105     0.0000     0.0000 </r>
       <r>    -3.4774     0.0000     0.0000 </r>
       <r>    -3.4443     0.0000     0.0000 </r>
       <r>    -3.4113     0.0000     0.0000 </r>
       <r>    -3.3782     0.0000     0.0000 </r>
       <r>    -3.3451     0.0000     0.0000 </r>
       <r>    -3.3120     0.0000     0.0000 </r>
       <r>    -3.2789     0.0000     0.0000 </r>
       <r>    -3.2458     0.0000     0.0000 </r>
       <r>    -3.2127     0.0000     0.0000 </r>
       <r>    -3.1796     0.0000     0.0000 </r>
       <r>    -3.1465     0.0000     0.0000 </r>
       <r>    -3.1134     0.0000     0.0000 </r>
       <r>    -3.0803     0.0000     0.0000 </r>
       <r>    -3.0472     0.0000     0.0000 </r>
       <r>    -3.0141     0.0000     0.0000 </r>
       <r>    -2.9810     0.0000     0.0000 </r>
       <r>    -2.9479     0.0000     0.0000 </r>
       <r>    -2.9148     0.0000     0.0000 </r>
       <r>    -2.8817     0.0000     0.0000 </r>
       <r>    -2.8486     0.0000     0.0000 </r>
       <r>    -2.8155     0.0000     0.0000 </r>
       <r>    -2.7824     0.0000     0.0000 </r>
       <r>    -2.7493     0.0000     0.0000 </r>
       <r>    -2.7163     0.0000     0.0000 </r>
       <r>    -2.6832     0.0000     0.0000 </r>
       <r>    -2.6501     0.0000     0.0000 </r>
       <r>    -2.6170     0.0000     0.0000 </r>
       <r>    -2.5839     0.0000     0.0000 </r>
       <r>    -2.5508     0.0000     0.0000 </r>
       <r>    -2.5177     0.0000     0.0000 </r>
       <r>    -2.4846     0.0000     0.0000 </r>
       <r>    -2.4515     0.0000     0.0000 </r>
       <r>    -2.4184     0.0000     0.0000 </r>
       <r>    -2.3853     0.0000     0.0000 </r>
       <r>    -2.3522     0.0000     0.0000 </r>
       <r>    -2.3191     0.0000     0.0000 </r>
       <r>    -2.2860     0.0000     0.0000 </r>
       <r>    -2.2529     0.0000     0.0000 </r>
       <r>    -2.2198     0.0000     0.0000 </r>
       <r>    -2.1867     0.0000     0.0000 </r>
       <r>    -2.1536     0.0000     0.0000 </r>
       <r>    -2.1205     0.0000     0.0000 </r>
       <r>    -2.0874     0.0000     0.0000 </r>
       <r>    -2.0543     0.0000     0.0000 </r>
       <r>    -2.0213     0.0000     0.0000 </r>
       <r>    -1.9882     0.0000     0.0000 </r>
       <r>    -1.9551     0.0000     0.0000 </r>
       <r>    -1.9220     0.0000     0.0000 </r>
       <r>    -1.8889     0.0000     0.0000 </r>
       <r>    -1.8558     0.0000     0.0000 </r>
       <r>    -1.8227     0.0000     0.0000 </r>
       <r>    -1.7896     0.0000     0.0000 </r>
       <r>    -1.7565     0.0000     0.0000 </r>
       <r>    -1.7234     0.0000     0.0000 </r>
       <r>    -1.6903     0.0000     0.0000 </r>
       <r>    -1.6572     0.0000     0.0000 </r>
       <r>    -1.6241     0.0000     0.0000 </r>
       <r>    -1.5910     0.0000     0.0000 </r>
       <r>    -1.5579     0.0000     0.0000 </r>
       <r>    -1.5248     0.0000     0.0000 </r>
       <r>    -1.4917     0.0000     0.0000 </r>
       <r>    -1.4586     0.0000     0.0000 </r>
       <r>    -1.4255     0.0000     0.0000 </r>
       <r>    -1.3924     0.0000     0.0000 </r>
       <r>    -1.3593     0.0000     0.0000 </r>
       <r>    -1.3263     0.0000     0.0000 </r>
       <r>    -1.2932     0.0000     0.0000 </r>
       <r>    -1.2601     0.0000     0.0000 </r>
       <r>    -1.2270     0.0000     0.0000 </r>
       <r>    -1.1939     0.0000     0.0000 </r>
       <r>    -1.1608     0.0000     0.0000 </r>
       <r>    -1.1277     0.0000     0.0000 </r>
       <r>    -1.0946     0.0000     0.0000 </r>
       <r>    -1.0615     0.0000     0.0000 </r>
       <r>    -1.0284     0.0000     0.0000 </r>
       <r>    -0.9953     0.0000     0.0000 </r>
       <r>    -0.9622     0.0000     0.0000 </r>
       <r>    -0.9291     0.0000     0.0000 </r>
       <r>    -0.8960     0.0000     0.0000 </r>
       <r>    -0.8629     0.0000     0.0000 </r>
       <r>    -0.8298     0.0000     0.0000 </r>
       <r>    -0.7967     0.0000     0.0000 </r>
       <r>    -0.7636     0.0000     0.0000 </r>
       <r>    -0.7305     0.0000     0.0000 </r>
       <r>    -0.6974     0.0000     0.0000 </r>
       <r>    -0.6643     0.0000     0.0000 </r>
       <r>    -0.6313     0.0000     0.0000 </r>
       <r>    -0.5982     0.0000     0.0000 </r>
       <r>    -0.5651     0.0000     0.0000 </r>
       <r>    -0.5320     0.0000     0.0000 </r>
       <r>    -0.4989     0.0000     0.0000 </r>
       <r>    -0.4658     0.0000     0.0000 </r>
       <r>    -0.4327     0.0000     0.0000 </r>
       <r>    -0.3996     0.0000     0.0000 </r>
       <r>    -0.3665     0.0067     0.0002 </r>
       <r>    -0.3334     0.0063     0.0004 </r>
       <r>    -0.3003     0.0122     0.0008 </r>
       <r>    -0.2672     0.0237     0.0016 </r>
       <r>    -0.2341     0.0458     0.0031 </r>
       <r>    -0.2010     0.1044     0.0066 </r>
       <r>    -0.1679     0.1849     0.0127 </r>
       <r>    -0.1348     0.3530     0.0244 </r>
       <r>    -0.1017     0.6646     0.0464 </r>
       <r>    -0.0686     1.2194     0.0867 </r>
       <r>    -0.0355     2.1365     0.1575 </r>
       <r>    -0.0024     3.4669     0.2722 </r>
       <r>     0.0307     5.0236     0.4385 </r>
       <r>     0.0637     6.3564     0.6488 </r>
       <r>     0.0968     7.2041     0.8872 </r>
       <r>     0.1299     7.9465     1.1502 </r>
       <r>     0.1630     9.1021     1.4515 </r>
       <r>     0.1961    10.3940     1.7955 </r>
       <r>     0.2292    10.6701     2.1486 </r>
       <r>     0.2623     9.2756     2.4556 </r>
       <r>     0.2954     6.8183     2.6812 </r>
       <r>     0.3285     4.4282     2.8278 </r>
       <r>     0.3616     2.7341     2.9183 </r>
       <r>     0.3947     1.8112     2.9782 </r>
       <r>     0.4278     1.5503     3.0295 </r>
       <r>     0.4609     1.8906     3.0926 </r>
       <r>     0.4940     2.9150     3.1891 </r>
       <r>     0.5271     4.6962     3.3445 </r>
       <r>     0.5602     7.0617     3.5782 </r>
       <r>     0.5933     9.2065     3.8829 </r>
       <r>     0.6264     9.8858     4.2111 </r>
       <r>     0.6595     8.6374     4.4969 </r>
       <r>     0.6926     6.2715     4.7045 </r>
       <r>     0.7257     3.9679     4.8358 </r>
       <r>     0.7587     2.2960     4.9118 </r>
       <r>     0.7918     1.2665     4.9537 </r>
[...]
        <r>    -1.8227     0.0000     0.0000     0.0000     0.0000     0.0000     0.0000     0.0000     0.0000     0.0000 </r>
        <r>    -1.7896     0.0000     0.0000     0.0000     0.0000     0.0000     0.0000     0.0000     0.0000     0.0000 </r>
        <r>    -1.7565     0.0000     0.0000     0.0000     0.0000     0.0000     0.0000     0.0000     0.0000     0.0000 </r>
        <r>    -1.7234     0.0000     0.0000     0.0000     0.0000     0.0000     0.0000     0.0000     0.0000     0.0000 </r>
        <r>    -1.6903     0.0000     0.0000     0.0000     0.0000     0.0000     0.0000     0.0000     0.0000     0.0000 </r>
        <r>    -1.6572     0.0000     0.0000     0.0000     0.0000     0.0000     0.0000     0.0000     0.0000     0.0000 </r>
        <r>    -1.6241     0.0000     0.0000     0.0000     0.0000     0.0000     0.0000     0.0000     0.0000     0.0000 </r>
        <r>    -1.5910     0.0000     0.0000     0.0000     0.0000     0.0000     0.0000     0.0000     0.0000     0.0000 </r>
        <r>    -1.5579     0.0000     0.0000     0.0000     0.0000     0.0000     0.0000     0.0000     0.0000     0.0000 </r>
        <r>    -1.5248     0.0000     0.0000     0.0000     0.0000     0.0000     0.0000     0.0000     0.0000     0.0000 </r>
        <r>    -1.4917     0.0000     0.0000     0.0000     0.0000     0.0000     0.0000     0.0000     0.0000     0.0000 </r>
        <r>    -1.4586     0.0000     0.0000     0.0000     0.0000     0.0000     0.0000     0.0000     0.0000     0.0000 </r>
        <r>    -1.4255     0.0000     0.0000     0.0000     0.0000     0.0000     0.0000     0.0000     0.0000     0.0000 </r>
        <r>    -1.3924     0.0000     0.0000     0.0000     0.0000     0.0000     0.0000     0.0000     0.0000     0.0000 </r>
        <r>    -1.3593     0.0000     0.0000     0.0000     0.0000     0.0000     0.0000     0.0000     0.0000     0.0000 </r>
        <r>    -1.3263     0.0000     0.0000     0.0000     0.0000     0.0000     0.0000     0.0000     0.0000     0.0000 </r>
        <r>    -1.2932     0.0000     0.0000     0.0000     0.0000     0.0000     0.0000     0.0000     0.0000     0.0000 </r>
        <r>    -1.2601     0.0000     0.0000     0.0000     0.0000     0.0000     0.0000     0.0000     0.0000     0.0000 </r>
        <r>    -1.2270     0.0000     0.0000     0.0000     0.0000     0.0000     0.0000     0.0000     0.0000     0.0000 </r>
        <r>    -1.1939     0.0000     0.0000     0.0000     0.0000     0.0000     0.0000     0.0000     0.0000     0.0000 </r>
        <r>    -1.1608     0.0000     0.0000     0.0000     0.0000     0.0000     0.0000     0.0000     0.0000     0.0000 </r>
        <r>    -1.1277     0.0000     0.0000     0.0000     0.0000     0.0000     0.0000     0.0000     0.0000     0.0000 </r>
        <r>    -1.0946     0.0000     0.0000     0.0000     0.0000     0.0000     0.0000     0.0000     0.0000     0.0000 </r>
        <r>    -1.0615     0.0000     0.0000     0.0000     0.0000     0.0000     0.0000     0.0000     0.0000     0.0000 </r>
        <r>    -1.0284     0.0000     0.0000     0.0000     0.0000     0.0000     0.0000     0.0000     0.0000     0.0000 </r>
        <r>    -0.9953     0.0000     0.0000     0.0000     0.0000     0.0000     0.0000     0.0000     0.0000     0.0000 </r>
        <r>    -0.9622     0.0000     0.0000     0.0000     0.0000     0.0000     0.0000     0.0000     0.0000     0.0000 </r>
        <r>    -0.9291     0.0000     0.0000     0.0000     0.0000     0.0000     0.0000     0.0000     0.0000     0.0000 </r>
        <r>    -0.8960     0.0000     0.0000     0.0000     0.0000     0.0000     0.0000     0.0000     0.0000     0.0000 </r>
        <r>    -0.8629     0.0000     0.0000     0.0000     0.0000     0.0000     0.0000     0.0000     0.0000     0.0000 </r>
        <r>    -0.8298     0.0000     0.0000     0.0000     0.0000     0.0000     0.0000     0.0000     0.0000     0.0000 </r>
        <r>    -0.7967     0.0000     0.0000     0.0000     0.0000     0.0000     0.0000     0.0000     0.0000     0.0000 </r>
        <r>    -0.7636     0.0000     0.0000     0.0000     0.0000     0.0000     0.0000     0.0000     0.0000     0.0000 </r>
        <r>    -0.7305     0.0000     0.0000     0.0000     0.0000     0.0000     0.0000     0.0000     0.0000     0.0000 </r>
        <r>    -0.6974     0.0000     0.0000     0.0000     0.0000     0.0000     0.0000     0.0000     0.0000     0.0000 </r>
        <r>    -0.6643     0.0000     0.0000     0.0000     0.0000     0.0000     0.0000     0.0000     0.0000     0.0000 </r>
        <r>    -0.6313     0.0000     0.0000     0.0000     0.0000     0.0000     0.0000     0.0000     0.0000     0.0000 </r>
        <r>    -0.5982     0.0000     0.0000     0.0000     0.0000     0.0000     0.0000     0.0000     0.0000     0.0000 </r>
        <r>    -0.5651     0.0000     0.0000     0.0000     0.0000     0.0000     0.0000     0.0000     0.0000     0.0000 </r>
        <r>    -0.5320     0.0000     0.0000     0.0000     0.0000     0.0000     0.0000     0.0000     0.0000     0.0000 </r>
        <r>    -0.4989     0.0000     0.0000     0.0000     0.0000     0.0000     0.0000     0.0000     0.0000     0.0000 </r>
        <r>    -0.4658     0.0000     0.0000     0.0000     0.0000     0.0000     0.0000     0.0000     0.0000     0.0000 </r>
        <r>    -0.4327     0.0000     0.0000     0.0000     0.0000     0.0000     0.0000     0.0000     0.0000     0.0000 </r>
        <r>    -0.3996     0.0000     0.0000     0.0000     0.0000     0.0000     0.0000     0.0000     0.0000     0.0000 </r>
        <r>    -0.3665     0.0000     0.0000     0.0000     0.0000     0.0000     0.0000     0.0000     0.0000     0.0000 </r>
        <r>    -0.3334     0.0000     0.0000     0.0000     0.0000     0.0000     0.0000     0.0000     0.0000     0.0000 </r>
        <r>    -0.3003     0.0000     0.0000     0.0000     0.0000     0.0000     0.0000     0.0000     0.0000     0.0000 </r>
        <r>    -0.2672     0.0000     0.0000     0.0000     0.0000     0.0000     0.0000     0.0000     0.0000     0.0000 </r>
        <r>    -0.2341     0.0000     0.0000     0.0000     0.0000     0.0000     0.0000     0.0000     0.0000     0.0000 </r>
        <r>    -0.2010     0.0000     0.0000     0.0000     0.0000     0.0000     0.0000     0.0000     0.0000     0.0000 </r>
        <r>    -0.1679     0.0000     0.0000     0.0000     0.0000     0.0000     0.0000     0.0000     0.0000     0.0000 </r>
        <r>    -0.1348     0.0000     0.0000     0.0000     0.0000     0.0000     0.0000     0.0000     0.0000     0.0000 </r>
        <r>    -0.1017     0.0000     0.0000     0.0000     0.0000     0.0000     0.0000     0.0000     0.0000     0.0000 </r>
        <r>    -0.0686     0.0000     0.0000     0.0000     0.0000     0.0000     0.0000     0.0000     0.0000     0.0000 </r>
        <r>    -0.0355     0.0000     0.0000     0.0000     0.0000     0.0000     0.0000     0.0000     0.0000     0.0000 </r>
        <r>    -0.0024     0.0000     0.0000     0.0000     0.0000     0.0000     0.0000     0.0000     0.0000     0.0000 </r>
        <r>     0.0307     0.0000     0.0000     0.0000     0.0000     0.0000     0.0000     0.0000     0.0000     0.0000 </r>
        <r>     0.0637     0.0000     0.0000     0.0000     0.0000     0.0000     0.0000     0.0000     0.0000     0.0000 </r>
        <r>     0.0968     0.0000     0.0000     0.0000     0.0000     0.0000     0.0000     0.0000     0.0000     0.0000 </r>
        <r>     0.1299     0.0001     0.0000     0.0000     0.0000     0.0000     0.0000     0.0000     0.0000     0.0000 </r>
        <r>     0.1630     0.0001     0.0000     0.0000     0.0000     0.0000     0.0000     0.0000     0.0000     0.0000 </r>
        <r>     0.1961     0.0001     0.0000     0.0000     0.0000     0.0000     0.0000     0.0000     0.0000     0.0000 </r>
        <r>     0.2292     0.0001     0.0000     0.0000     0.0000     0.0000     0.0000     0.0000     0.0000     0.0000 </r>
        <r>     0.2623     0.0001     0.0000     0.0000     0.0000     0.0000     0.0000     0.0000     0.0000     0.0000 </r>
        <r>     0.2954     0.0001     0.0000     0.0000     0.0000     0.0000     0.0000     0.0000     0.0000     0.0000 </r>
        <r>     0.3285     0.0000     0.0000     0.0000     0.0000     0.0000     0.0000     0.0000     0.0000     0.0000 </r>
        <r>     0.3616     0.0000     0.0000     0.0000     0.0000     0.0000     0.0000     0.0000     0.0000     0.0000 </r>
        <r>     0.3947     0.0000     0.0000     0.0000     0.0000     0.0000     0.0000     0.0000     0.0000     0.0000 </r>
        <r>     0.4278     0.0000     0.0000     0.0000     0.0000     0.0000     0.0000     0.0000     0.0000     0.0000 </r>
        <r>     0.4609     0.0000     0.0000     0.0000     0.0000     0.0000     0.0000     0.0000     0.0000     0.0000 </r>
        <r>     0.4940     0.0000     0.0000     0.0000     0.0000     0.0000     0.0000     0.0000     0.0000     0.0000 </r>
        <r>     0.5271     0.0000     0.0000     0.0000     0.0000     0.0000     0.0000     0.0000     0.0000     0.0000 </r>
        <r>     0.5602     0.0001     0.0000     0.0000     0.0000     0.0000     0.0000     0.0000     0.0000     0.0000 </r>
        <r>     0.5933     0.0001     0.0000     0.0000     0.0000     0.0000     0.0000     0.0000     0.0000     0.0000 </r>
        <r>     0.6264     0.0001     0.0000     0.0000     0.0000     0.0000     0.0000     0.0000     0.0000     0.0000 </r>
        <r>     0.6595     0.0001     0.0000     0.0000     0.0000     0.0000     0.0000     0.0000     0.0000     0.0000 </r>
        <r>     0.6926     0.0001     0.0000     0.0000     0.0000     0.0000     0.0000     0.0000     0.0000     0.0000 </r>
        <r>     0.7257     0.0000     0.0000     0.0000     0.0000     0.0000     0.0000     0.0000     0.0000     0.0000 </r>
        <r>     0.7587     0.0000     0.0000     0.0000     0.0000     0.0000     0.0000     0.0000     0.0000     0.0000 </r>
        <r>     0.7918     0.0000     0.0000     0.0000     0.0000     0.0000     0.0000     0.0000     0.0000     0.0000 </r>
        <r>     0.8249     0.0000     0.0000     0.0000     0.0000     0.0000     0.0000     0.0000     0.0000     0.0000 </r>
        <r>     0.8580     0.0000     0.0000     0.0000     0.0000     0.0000     0.0000     0.0000     0.0000     0.0000 </r>
        <r>     0.8911     0.0000     0.0000     0.0000     0.0000     0.0000     0.0000     0.0000     0.0000     0.0000 </r>
        <r>     0.9242     0.0000     0.0000     0.0000     0.0000     0.0000     0.0000     0.0000     0.0000     0.0000 </r>
        <r>     0.9573     0.0000     0.0000     0.0000     0.0000     0.0000     0.0000     0.0000     0.0000     0.0000 </r>
        <r>     0.9904     0.0000     0.0000     0.0000     0.0000     0.0000     0.0000     0.0000     0.0000     0.0000 </r>
        <r>     1.0235     0.0000     0.0000     0.0000     0.0000     0.0000     0.0000     0.0000     0.0000     0.0000 </r>
        <r>     1.0566     0.0000     0.0000     0.0000     0.0000     0.0000     0.0000     0.0000     0.0000     0.0000 </r>
        <r>     1.0897     0.0001     0.0000     0.0000     0.0000     0.0000     0.0000     0.0000     0.0000     0.0000 </r>
        <r>     1.1228     0.0001     0.0000     0.0000     0.0000     0.0000     0.0000     0.0000     0.0000     0.0000 </r>
        <r>     1.1559     0.0002     0.0000     0.0000     0.0000     0.0000     0.0000     0.0000     0.0000     0.0000 </r>
        <r>     1.1890     0.0003     0.0000     0.0000     0.0000     0.0000     0.0000     0.0000     0.0000     0.0000 </r>
        <r>     1.2221     0.0004     0.0000     0.0000     0.0000     0.0000     0.0000     0.0000     0.0000     0.0000 </r>
        <r>     1.2552     0.0004     0.0000     0.0000     0.0000     0.0000     0.0000     0.0000     0.0000     0.0000 </r>
        <r>     1.2883     0.0004     0.0000     0.0000     0.0000     0.0000     0.0000     0.0000     0.0000     0.0000 </r>
        <r>     1.3214     0.0003     0.0000     0.0000     0.0000     0.0000     0.0000     0.0000     0.0000     0.0000 </r>
        <r>     1.3545     0.0002     0.0000     0.0000     0.0000     0.0000     0.0000     0.0000     0.0000     0.0000 </r>
        <r>     1.3876     0.0001     0.0000     0.0000     0.0000     0.0000     0.0000     0.0000     0.0000     0.0000 </r>
        <r>     1.4207     0.0001     0.0000     0.0000     0.0000     0.0000     0.0000     0.0000     0.0000     0.0000 </r>
        <r>     1.4537     0.0000     0.0000     0.0000     0.0000     0.0000     0.0000     0.0000     0.0000     0.0000 </r>
        <r>     1.4868     0.0000     0.0000     0.0000     0.0000     0.0000     0.0000     0.0000     0.0000     0.0000 </r>
        <r>     1.5199     0.0000     0.0000     0.0000     0.0000     0.0000     0.0000     0.0000     0.0000     0.0000 </r>
        <r>     1.5530     0.0000     0.0000     0.0000     0.0000     0.0000     0.0000     0.0000     0.0000     0.0000 </r>
        <r>     1.5861     0.0000     0.0000     0.0000     0.0000     0.0000     0.0000     0.0000     0.0000     0.0000 </r>
        <r>     1.6192     0.0000     0.0000     0.0000     0.0000     0.0000     0.0000     0.0000     0.0000     0.0000 </r>
        <r>     1.6523     0.0000     0.0000     0.0000     0.0000     0.0000     0.0000     0.0000     0.0000     0.0000 </r>
        <r>     1.6854     0.0000     0.0000     0.0000     0.0000     0.0000     0.0000     0.0000     0.0000     0.0000 </r>
        <r>     1.7185     0.0000     0.0000     0.0000     0.0000     0.0000     0.0000     0.0000     0.0000     0.0000 </r>
        <r>     1.7516     0.0000     0.0000     0.0000     0.0000     0.0000     0.0000     0.0000     0.0000     0.0000 </r>
       </set>
      </set>
     </set>
    </array>
   </partial>
  </dos>
  <projected>
   <eigenvalues>
    <array>
     <dimension dim="1">band</dimension>
     <dimension dim="2">kpoint</dimension>
     <dimension dim="3">spin</dimension>
     <field>eigene</field>
     <field>occ</field>
     <set>
      <set comment="spin 1">
       <set comment="kpoint 1">
        <r>   -7.6770    1.0000 </r>
        <r>   -7.4855    1.0000 </r>
        <r>   -0.1883    0.0000 </r>
        <r>    0.0215    0.0000 </r>
        <r>    0.0794    0.0000 </r>
        <r>    0.3956    0.0000 </r>
        <r>    0.4054    0.0000 </r>
        <r>    0.4287    0.0000 </r>
       </set>
      </set>
      <set comment="spin 2">
       <set comment="kpoint 1">
        <r>    0.0539    0.0000 </r>
        <r>    0.2053    0.0000 </r>
        <r>    0.2173    0.0000 </r>
        <r>    0.6039    0.0000 </r>
        <r>    0.6059    0.0000 </r>
        <r>    1.2174    0.0000 </r>
        <r>    1.2284    0.0000 </r>
        <r>    1.2516    0.0000 </r>
       </set>
      </set>
     </set>
    </array>
   </eigenvalues>
   <array>
    <dimension dim="1">ion</dimension>
    <dimension dim="2">band</dimension>
    <dimension dim="3">kpoint</dimension>
    <dimension dim="4">spin</dimension>
    <field>    s</field>
    <field>   py</field>
    <field>   pz</field>
    <field>   px</field>
    <field>  dxy</field>
    <field>  dyz</field>
    <field>  dz2</field>
    <field>  dxz</field>
    <field>x2-y2</field>
    <set>
     <set comment="spin1">
      <set comment="kpoint 1">
       <set comment="band 1">
        <r>  0.1854  0.0000  0.0000  0.0000  0.0000  0.0000  0.0000  0.0000  0.0000 </r>
        <r>  0.1854  0.0000  0.0000  0.0000  0.0000  0.0000  0.0000  0.0000  0.0000 </r>
       </set>
       <set comment="band 2">
        <r>  0.1944  0.0000  0.0000  0.0000  0.0000  0.0000  0.0000  0.0000  0.0000 </r>
        <r>  0.1944  0.0000  0.0000  0.0000  0.0000  0.0000  0.0000  0.0000  0.0000 </r>
       </set>
       <set comment="band 3">
        <r>  0.0069  0.0000  0.0000  0.0000  0.0000  0.0000  0.0000  0.0000  0.0000 </r>
        <r>  0.0069  0.0000  0.0000  0.0000  0.0000  0.0000  0.0000  0.0000  0.0000 </r>
       </set>
       <set comment="band 4">
        <r>  0.0026  0.0000  0.0001  0.0000  0.0000  0.0000  0.0000  0.0000  0.0000 </r>
        <r>  0.0026  0.0000  0.0001  0.0000  0.0000  0.0000  0.0000  0.0000  0.0000 </r>
       </set>
       <set comment="band 5">
        <r>  0.0009  0.0000  0.0000  0.0000  0.0000  0.0000  0.0000  0.0000  0.0000 </r>
        <r>  0.0009  0.0000  0.0000  0.0000  0.0000  0.0000  0.0000  0.0000  0.0000 </r>
       </set>
       <set comment="band 6">
        <r>  0.0000  0.0011  0.0000  0.0000  0.0000  0.0000  0.0000  0.0000  0.0000 </r>
        <r>  0.0000  0.0011  0.0000  0.0000  0.0000  0.0000  0.0000  0.0000  0.0000 </r>
       </set>
       <set comment="band 7">
        <r>  0.0000  0.0000  0.0000  0.0011  0.0000  0.0000  0.0000  0.0000  0.0000 </r>
        <r>  0.0000  0.0000  0.0000  0.0011  0.0000  0.0000  0.0000  0.0000  0.0000 </r>
       </set>
       <set comment="band 8">
        <r>  0.0025  0.0000  0.0001  0.0000  0.0000  0.0000  0.0000  0.0000  0.0000 </r>
        <r>  0.0024  0.0000  0.0001  0.0000  0.0000  0.0000  0.0000  0.0000  0.0000 </r>
       </set>
      </set>
     </set>
     <set comment="spin2">
      <set comment="kpoint 1">
       <set comment="band 1">
        <r>  0.0000  0.0000  0.0000  0.0000  0.0000  0.0000  0.0000  0.0000  0.0000 </r>
        <r>  0.0000  0.0000  0.0000  0.0000  0.0000  0.0000  0.0000  0.0000  0.0000 </r>
       </set>
       <set comment="band 2">
        <r>  0.0000  0.0000  0.0000  0.0000  0.0000  0.0000  0.0000  0.0000  0.0000 </r>
        <r>  0.0000  0.0000  0.0000  0.0000  0.0000  0.0000  0.0000  0.0000  0.0000 </r>
       </set>
       <set comment="band 3">
        <r>  0.0000  0.0000  0.0000  0.0000  0.0000  0.0000  0.0000  0.0000  0.0000 </r>
        <r>  0.0000  0.0000  0.0000  0.0000  0.0000  0.0000  0.0000  0.0000  0.0000 </r>
       </set>
       <set comment="band 4">
        <r>  0.0000  0.0000  0.0000  0.0000  0.0000  0.0000  0.0000  0.0000  0.0000 </r>
        <r>  0.0000  0.0000  0.0000  0.0000  0.0000  0.0000  0.0000  0.0000  0.0000 </r>
       </set>
       <set comment="band 5">
        <r>  0.0000  0.0000  0.0000  0.0000  0.0000  0.0000  0.0000  0.0000  0.0000 </r>
        <r>  0.0000  0.0000  0.0000  0.0000  0.0000  0.0000  0.0000  0.0000  0.0000 </r>
       </set>
       <set comment="band 6">
        <r>  0.0000  0.0000  0.0000  0.0000  0.0000  0.0000  0.0000  0.0000  0.0000 </r>
        <r>  0.0000  0.0000  0.0000  0.0000  0.0000  0.0000  0.0000  0.0000  0.0000 </r>
       </set>
       <set comment="band 7">
        <r>  0.0000  0.0000  0.0000  0.0000  0.0000  0.0000  0.0000  0.0000  0.0000 </r>
        <r>  0.0000  0.0000  0.0000  0.0000  0.0000  0.0000  0.0000  0.0000  0.0000 </r>
       </set>
       <set comment="band 8">
        <r>  0.0000  0.0000  0.0000  0.0000  0.0000  0.0000  0.0000  0.0000  0.0000 </r>
        <r>  0.0000  0.0000  0.0000  0.0000  0.0000  0.0000  0.0000  0.0000  0.0000 </r>
       </set>
      </set>
     </set>
    </set>
   </array>
  </projected>
 </calculation>
 <structure name="finalpos" >
  <crystal>
   <varray name="basis" >
    <v>      11.10380000       0.00000000       0.00000000 </v>
    <v>       0.00000000      11.20020000       0.00000000 </v>
    <v>       0.00000000       0.00000000      32.43460000 </v>
   </varray>
   <i name="volume">   4033.72191804 </i>
   <varray name="rec_basis" >
    <v>       0.09005926       0.00000000       0.00000000 </v>
    <v>       0.00000000       0.08928412       0.00000000 </v>
    <v>       0.00000000       0.00000000       0.03083127 </v>
   </varray>
  </crystal>
  <varray name="positions" >
   <v>       0.51898000       0.46775000       0.52268046 </v>
   <v>       0.51898000       0.46775000       0.40761954 </v>
  </varray>
 </structure>
</modeling>
