   3   3   1   0
  0.1344574E+04  0.1110380E-08  0.1120020E-08  0.3243460E-08  0.5000000E-15
   1.0000000000000000E-004
  CAR 
 unknown system                          
      2.56245381    -26.60907471  301     -5.99448041      1.00000000
    -26.609  0.0000E+00  0.0000E+00  0.0000E+00  0.0000E+00
    -26.512  0.0000E+00  0.0000E+00  0.0000E+00  0.0000E+00
    -26.415  0.0000E+00  0.0000E+00  0.0000E+00  0.0000E+00
    -26.317  0.0000E+00  0.0000E+00  0.0000E+00  0.0000E+00
    -26.220  0.0000E+00  0.0000E+00  0.0000E+00  0.0000E+00
    -26.123  0.0000E+00  0.0000E+00  0.0000E+00  0.0000E+00
    -26.026  0.0000E+00  0.0000E+00  0.0000E+00  0.0000E+00
    -25.928  0.0000E+00  0.0000E+00  0.0000E+00  0.0000E+00
    -25.831  0.0000E+00  0.0000E+00  0.0000E+00  0.0000E+00
    -25.734  0.1248E-04  0.1248E-04  0.1214E-05  0.1214E-05
    -25.637  0.7472E-04  0.7472E-04  0.8479E-05  0.8479E-05
    -25.539  0.5194E-03  0.5194E-03  0.5899E-04  0.5899E-04
    -25.442  0.3490E-02  0.3490E-02  0.3984E-03  0.3984E-03
    -25.345  0.1903E-01  0.1903E-01  0.2249E-02  0.2249E-02
    -25.248  0.4576E-01  0.4576E-01  0.6698E-02  0.6698E-02
    -25.150  0.2719E-01  0.2719E-01  0.9341E-02  0.9341E-02
    -25.053  0.5747E-02  0.5747E-02  0.9900E-02  0.9900E-02
    -24.956  0.8787E-03  0.8787E-03  0.9986E-02  0.9986E-02
    -24.859  0.0000E+00  0.0000E+00  0.1000E-01  0.1000E-01
    -24.762  0.0000E+00  0.0000E+00  0.1000E-01  0.1000E-01
    -24.664  0.0000E+00  0.0000E+00  0.1000E-01  0.1000E-01
    -24.567  0.0000E+00  0.0000E+00  0.1000E-01  0.1000E-01
    -24.470  0.0000E+00  0.0000E+00  0.1000E-01  0.1000E-01
    -24.373  0.0000E+00  0.0000E+00  0.1000E-01  0.1000E-01
    -24.275  0.0000E+00  0.0000E+00  0.1000E-01  0.1000E-01
    -24.178  0.0000E+00  0.0000E+00  0.1000E-01  0.1000E-01
    -24.081  0.0000E+00  0.0000E+00  0.1000E-01  0.1000E-01
    -23.984  0.0000E+00  0.0000E+00  0.1000E-01  0.1000E-01
    -23.886  0.0000E+00  0.0000E+00  0.1000E-01  0.1000E-01
    -23.789  0.0000E+00  0.0000E+00  0.1000E-01  0.1000E-01
    -23.692  0.0000E+00  0.0000E+00  0.1000E-01  0.1000E-01
    -23.595  0.0000E+00  0.0000E+00  0.1000E-01  0.1000E-01
    -23.497  0.0000E+00  0.0000E+00  0.1000E-01  0.1000E-01
    -23.400  0.0000E+00  0.0000E+00  0.1000E-01  0.1000E-01
    -23.303  0.0000E+00  0.0000E+00  0.1000E-01  0.1000E-01
    -23.206  0.0000E+00  0.0000E+00  0.1000E-01  0.1000E-01
    -23.108  0.0000E+00  0.0000E+00  0.1000E-01  0.1000E-01
    -23.011  0.0000E+00  0.0000E+00  0.1000E-01  0.1000E-01
    -22.914  0.0000E+00  0.0000E+00  0.1000E-01  0.1000E-01
    -22.817  0.0000E+00  0.0000E+00  0.1000E-01  0.1000E-01
    -22.720  0.0000E+00  0.0000E+00  0.1000E-01  0.1000E-01
    -22.622  0.0000E+00  0.0000E+00  0.1000E-01  0.1000E-01
    -22.525  0.0000E+00  0.0000E+00  0.1000E-01  0.1000E-01
    -22.428  0.0000E+00  0.0000E+00  0.1000E-01  0.1000E-01
    -22.331  0.0000E+00  0.0000E+00  0.1000E-01  0.1000E-01
    -22.233  0.0000E+00  0.0000E+00  0.1000E-01  0.1000E-01
    -22.136  0.0000E+00  0.0000E+00  0.1000E-01  0.1000E-01
    -22.039  0.0000E+00  0.0000E+00  0.1000E-01  0.1000E-01
    -21.942  0.0000E+00  0.0000E+00  0.1000E-01  0.1000E-01
    -21.844  0.0000E+00  0.0000E+00  0.1000E-01  0.1000E-01
    -21.747  0.0000E+00  0.0000E+00  0.1000E-01  0.1000E-01
    -21.650  0.0000E+00  0.0000E+00  0.1000E-01  0.1000E-01
    -21.553  0.0000E+00  0.0000E+00  0.1000E-01  0.1000E-01
    -21.455  0.0000E+00  0.0000E+00  0.1000E-01  0.1000E-01
    -21.358  0.0000E+00  0.0000E+00  0.1000E-01  0.1000E-01
    -21.261  0.0000E+00  0.0000E+00  0.1000E-01  0.1000E-01
    -21.164  0.0000E+00  0.0000E+00  0.1000E-01  0.1000E-01
    -21.066  0.0000E+00  0.0000E+00  0.1000E-01  0.1000E-01
    -20.969  0.0000E+00  0.0000E+00  0.1000E-01  0.1000E-01
    -20.872  0.0000E+00  0.0000E+00  0.1000E-01  0.1000E-01
    -20.775  0.0000E+00  0.0000E+00  0.1000E-01  0.1000E-01
    -20.678  0.0000E+00  0.0000E+00  0.1000E-01  0.1000E-01
    -20.580  0.0000E+00  0.0000E+00  0.1000E-01  0.1000E-01
    -20.483  0.0000E+00  0.0000E+00  0.1000E-01  0.1000E-01
    -20.386  0.0000E+00  0.0000E+00  0.1000E-01  0.1000E-01
    -20.289  0.0000E+00  0.0000E+00  0.1000E-01  0.1000E-01
    -20.191  0.0000E+00  0.0000E+00  0.1000E-01  0.1000E-01
    -20.094  0.0000E+00  0.0000E+00  0.1000E-01  0.1000E-01
    -19.997  0.0000E+00  0.0000E+00  0.1000E-01  0.1000E-01
    -19.900  0.0000E+00  0.0000E+00  0.1000E-01  0.1000E-01
    -19.802  0.0000E+00  0.0000E+00  0.1000E-01  0.1000E-01
    -19.705  0.0000E+00  0.0000E+00  0.1000E-01  0.1000E-01
    -19.608  0.0000E+00  0.0000E+00  0.1000E-01  0.1000E-01
    -19.511  0.0000E+00  0.0000E+00  0.1000E-01  0.1000E-01
    -19.413  0.0000E+00  0.0000E+00  0.1000E-01  0.1000E-01
    -19.316  0.0000E+00  0.0000E+00  0.1000E-01  0.1000E-01
    -19.219  0.0000E+00  0.0000E+00  0.1000E-01  0.1000E-01
    -19.122  0.0000E+00  0.0000E+00  0.1000E-01  0.1000E-01
    -19.024  0.0000E+00  0.0000E+00  0.1000E-01  0.1000E-01
    -18.927  0.0000E+00  0.0000E+00  0.1000E-01  0.1000E-01
    -18.830  0.0000E+00  0.0000E+00  0.1000E-01  0.1000E-01
    -18.733  0.0000E+00  0.0000E+00  0.1000E-01  0.1000E-01
    -18.636  0.0000E+00  0.0000E+00  0.1000E-01  0.1000E-01
    -18.538  0.0000E+00  0.0000E+00  0.1000E-01  0.1000E-01
    -18.441  0.0000E+00  0.0000E+00  0.1000E-01  0.1000E-01
    -18.344  0.0000E+00  0.0000E+00  0.1000E-01  0.1000E-01
    -18.247  0.0000E+00  0.0000E+00  0.1000E-01  0.1000E-01
    -18.149  0.0000E+00  0.0000E+00  0.1000E-01  0.1000E-01
    -18.052  0.0000E+00  0.0000E+00  0.1000E-01  0.1000E-01
    -17.955  0.0000E+00  0.0000E+00  0.1000E-01  0.1000E-01
    -17.858  0.0000E+00  0.0000E+00  0.1000E-01  0.1000E-01
    -17.760  0.0000E+00  0.0000E+00  0.1000E-01  0.1000E-01
    -17.663  0.0000E+00  0.0000E+00  0.1000E-01  0.1000E-01
    -17.566  0.0000E+00  0.0000E+00  0.1000E-01  0.1000E-01
    -17.469  0.0000E+00  0.0000E+00  0.1000E-01  0.1000E-01
    -17.371  0.0000E+00  0.0000E+00  0.1000E-01  0.1000E-01
    -17.274  0.0000E+00  0.0000E+00  0.1000E-01  0.1000E-01
    -17.177  0.0000E+00  0.0000E+00  0.1000E-01  0.1000E-01
    -17.080  0.0000E+00  0.0000E+00  0.1000E-01  0.1000E-01
    -16.982  0.0000E+00  0.0000E+00  0.1000E-01  0.1000E-01
    -16.885  0.0000E+00  0.0000E+00  0.1000E-01  0.1000E-01
    -16.788  0.0000E+00  0.0000E+00  0.1000E-01  0.1000E-01
    -16.691  0.0000E+00  0.0000E+00  0.1000E-01  0.1000E-01
    -16.594  0.0000E+00  0.0000E+00  0.1000E-01  0.1000E-01
    -16.496  0.0000E+00  0.0000E+00  0.1000E-01  0.1000E-01
    -16.399  0.0000E+00  0.0000E+00  0.1000E-01  0.1000E-01
    -16.302  0.0000E+00  0.0000E+00  0.1000E-01  0.1000E-01
    -16.205  0.0000E+00  0.0000E+00  0.1000E-01  0.1000E-01
    -16.107  0.0000E+00  0.0000E+00  0.1000E-01  0.1000E-01
    -16.010  0.0000E+00  0.0000E+00  0.1000E-01  0.1000E-01
    -15.913  0.0000E+00  0.0000E+00  0.1000E-01  0.1000E-01
    -15.816  0.0000E+00  0.0000E+00  0.1000E-01  0.1000E-01
    -15.718  0.0000E+00  0.0000E+00  0.1000E-01  0.1000E-01
    -15.621  0.0000E+00  0.0000E+00  0.1000E-01  0.1000E-01
    -15.524  0.0000E+00  0.0000E+00  0.1000E-01  0.1000E-01
    -15.427  0.0000E+00  0.0000E+00  0.1000E-01  0.1000E-01
    -15.329  0.0000E+00  0.0000E+00  0.1000E-01  0.1000E-01
    -15.232  0.0000E+00  0.0000E+00  0.1000E-01  0.1000E-01
    -15.135  0.0000E+00  0.0000E+00  0.1000E-01  0.1000E-01
    -15.038  0.0000E+00  0.0000E+00  0.1000E-01  0.1000E-01
    -14.940  0.0000E+00  0.0000E+00  0.1000E-01  0.1000E-01
    -14.843  0.0000E+00  0.0000E+00  0.1000E-01  0.1000E-01
    -14.746  0.0000E+00  0.0000E+00  0.1000E-01  0.1000E-01
    -14.649  0.0000E+00  0.0000E+00  0.1000E-01  0.1000E-01
    -14.552  0.0000E+00  0.0000E+00  0.1000E-01  0.1000E-01
    -14.454  0.0000E+00  0.0000E+00  0.1000E-01  0.1000E-01
    -14.357  0.0000E+00  0.0000E+00  0.1000E-01  0.1000E-01
    -14.260  0.0000E+00  0.0000E+00  0.1000E-01  0.1000E-01
    -14.163  0.0000E+00  0.0000E+00  0.1000E-01  0.1000E-01
    -14.065  0.0000E+00  0.0000E+00  0.1000E-01  0.1000E-01
    -13.968  0.0000E+00  0.0000E+00  0.1000E-01  0.1000E-01
    -13.871  0.0000E+00  0.0000E+00  0.1000E-01  0.1000E-01
    -13.774  0.0000E+00  0.0000E+00  0.1000E-01  0.1000E-01
    -13.676  0.0000E+00  0.0000E+00  0.1000E-01  0.1000E-01
    -13.579  0.5269E-05  0.5269E-05  0.1000E-01  0.1000E-01
    -13.482  0.3156E-04  0.3156E-04  0.1000E-01  0.1000E-01
    -13.385  0.2201E-03  0.2201E-03  0.1002E-01  0.1002E-01
    -13.287  0.1513E-02  0.1513E-02  0.1017E-01  0.1017E-01
    -13.190  0.9450E-02  0.9450E-02  0.1109E-01  0.1109E-01
    -13.093  0.3622E-01  0.3622E-01  0.1461E-01  0.1461E-01
    -12.996  0.4068E-01  0.4068E-01  0.1857E-01  0.1857E-01
    -12.898  0.1232E-01  0.1232E-01  0.1977E-01  0.1977E-01
    -12.801  0.2049E-02  0.2049E-02  0.1997E-01  0.1997E-01
    -12.704  0.2999E-03  0.2999E-03  0.2000E-01  0.2000E-01
    -12.607  0.0000E+00  0.0000E+00  0.2000E-01  0.2000E-01
    -12.510  0.0000E+00  0.0000E+00  0.2000E-01  0.2000E-01
    -12.412  0.0000E+00  0.0000E+00  0.2000E-01  0.2000E-01
    -12.315  0.0000E+00  0.0000E+00  0.2000E-01  0.2000E-01
    -12.218  0.0000E+00  0.0000E+00  0.2000E-01  0.2000E-01
    -12.121  0.0000E+00  0.0000E+00  0.2000E-01  0.2000E-01
    -12.023  0.0000E+00  0.0000E+00  0.2000E-01  0.2000E-01
    -11.926  0.0000E+00  0.0000E+00  0.2000E-01  0.2000E-01
    -11.829  0.0000E+00  0.0000E+00  0.2000E-01  0.2000E-01
    -11.732  0.0000E+00  0.0000E+00  0.2000E-01  0.2000E-01
    -11.634  0.0000E+00  0.0000E+00  0.2000E-01  0.2000E-01
    -11.537  0.0000E+00  0.0000E+00  0.2000E-01  0.2000E-01
    -11.440  0.0000E+00  0.0000E+00  0.2000E-01  0.2000E-01
    -11.343  0.0000E+00  0.0000E+00  0.2000E-01  0.2000E-01
    -11.245  0.0000E+00  0.0000E+00  0.2000E-01  0.2000E-01
    -11.148  0.0000E+00  0.0000E+00  0.2000E-01  0.2000E-01
    -11.051  0.0000E+00  0.0000E+00  0.2000E-01  0.2000E-01
    -10.954  0.0000E+00  0.0000E+00  0.2000E-01  0.2000E-01
    -10.856  0.0000E+00  0.0000E+00  0.2000E-01  0.2000E-01
    -10.759  0.0000E+00  0.0000E+00  0.2000E-01  0.2000E-01
    -10.662  0.0000E+00  0.0000E+00  0.2000E-01  0.2000E-01
    -10.565  0.0000E+00  0.0000E+00  0.2000E-01  0.2000E-01
    -10.467  0.0000E+00  0.0000E+00  0.2000E-01  0.2000E-01
    -10.370  0.0000E+00  0.0000E+00  0.2000E-01  0.2000E-01
    -10.273  0.0000E+00  0.0000E+00  0.2000E-01  0.2000E-01
    -10.176  0.0000E+00  0.0000E+00  0.2000E-01  0.2000E-01
    -10.079  0.0000E+00  0.0000E+00  0.2000E-01  0.2000E-01
     -9.981  0.0000E+00  0.0000E+00  0.2000E-01  0.2000E-01
     -9.884  0.0000E+00  0.0000E+00  0.2000E-01  0.2000E-01
     -9.787  0.0000E+00  0.0000E+00  0.2000E-01  0.2000E-01
     -9.690  0.1354E-04  0.1354E-04  0.2000E-01  0.2000E-01
     -9.592  0.8108E-04  0.8108E-04  0.2001E-01  0.2001E-01
     -9.495  0.5634E-03  0.5634E-03  0.2006E-01  0.2006E-01
     -9.398  0.3773E-02  0.3773E-02  0.2043E-01  0.2043E-01
     -9.301  0.2019E-01  0.2019E-01  0.2239E-01  0.2239E-01
     -9.203  0.4609E-01  0.4609E-01  0.2688E-01  0.2688E-01
     -9.106  0.2585E-01  0.2585E-01  0.2939E-01  0.2939E-01
     -9.009  0.5327E-02  0.5327E-02  0.2991E-01  0.2991E-01
     -8.912  0.8103E-03  0.8103E-03  0.2999E-01  0.2999E-01
     -8.814  0.0000E+00  0.0000E+00  0.3000E-01  0.3000E-01
     -8.717  0.0000E+00  0.0000E+00  0.3000E-01  0.3000E-01
     -8.620  0.0000E+00  0.0000E+00  0.3000E-01  0.3000E-01
     -8.523  0.0000E+00  0.0000E+00  0.3000E-01  0.3000E-01
     -8.425  0.0000E+00  0.0000E+00  0.3000E-01  0.3000E-01
     -8.328  0.0000E+00  0.0000E+00  0.3000E-01  0.3000E-01
     -8.231  0.0000E+00  0.0000E+00  0.3000E-01  0.3000E-01
     -8.134  0.0000E+00  0.0000E+00  0.3000E-01  0.3000E-01
     -8.037  0.0000E+00  0.0000E+00  0.3000E-01  0.3000E-01
     -7.939  0.0000E+00  0.0000E+00  0.3000E-01  0.3000E-01
     -7.842  0.0000E+00  0.0000E+00  0.3000E-01  0.3000E-01
     -7.745  0.0000E+00  0.0000E+00  0.3000E-01  0.3000E-01
     -7.648  0.9537E-05  0.9537E-05  0.3000E-01  0.3000E-01
     -7.550  0.5711E-04  0.5711E-04  0.3001E-01  0.3001E-01
     -7.453  0.3975E-03  0.3975E-03  0.3005E-01  0.3005E-01
     -7.356  0.2696E-02  0.2696E-02  0.3031E-01  0.3031E-01
     -7.259  0.1550E-01  0.1550E-01  0.3181E-01  0.3181E-01
     -7.161  0.4385E-01  0.4385E-01  0.3608E-01  0.3608E-01
     -7.064  0.3164E-01  0.3164E-01  0.3916E-01  0.3916E-01
     -6.967  0.7349E-02  0.7349E-02  0.3987E-01  0.3987E-01
     -6.870  0.1146E-02  0.1146E-02  0.3998E-01  0.3998E-01
     -6.772  0.0000E+00  0.0000E+00  0.4000E-01  0.4000E-01
     -6.675  0.0000E+00  0.0000E+00  0.4000E-01  0.4000E-01
     -6.578  0.0000E+00  0.0000E+00  0.4000E-01  0.4000E-01
     -6.481  0.0000E+00  0.0000E+00  0.4000E-01  0.4000E-01
     -6.383  0.0000E+00  0.0000E+00  0.4000E-01  0.4000E-01
     -6.286  0.0000E+00  0.0000E+00  0.4000E-01  0.4000E-01
     -6.189  0.0000E+00  0.0000E+00  0.4000E-01  0.4000E-01
     -6.092  0.0000E+00  0.0000E+00  0.4000E-01  0.4000E-01
     -5.995  0.0000E+00  0.0000E+00  0.4000E-01  0.4000E-01
     -5.897  0.0000E+00  0.0000E+00  0.4000E-01  0.4000E-01
     -5.800  0.0000E+00  0.0000E+00  0.4000E-01  0.4000E-01
     -5.703  0.0000E+00  0.0000E+00  0.4000E-01  0.4000E-01
     -5.606  0.0000E+00  0.0000E+00  0.4000E-01  0.4000E-01
     -5.508  0.0000E+00  0.0000E+00  0.4000E-01  0.4000E-01
     -5.411  0.0000E+00  0.0000E+00  0.4000E-01  0.4000E-01
     -5.314  0.0000E+00  0.0000E+00  0.4000E-01  0.4000E-01
     -5.217  0.0000E+00  0.0000E+00  0.4000E-01  0.4000E-01
     -5.119  0.0000E+00  0.0000E+00  0.4000E-01  0.4000E-01
     -5.022  0.0000E+00  0.0000E+00  0.4000E-01  0.4000E-01
     -4.925  0.0000E+00  0.0000E+00  0.4000E-01  0.4000E-01
     -4.828  0.0000E+00  0.0000E+00  0.4000E-01  0.4000E-01
     -4.730  0.0000E+00  0.0000E+00  0.4000E-01  0.4000E-01
     -4.633  0.0000E+00  0.0000E+00  0.4000E-01  0.4000E-01
     -4.536  0.0000E+00  0.0000E+00  0.4000E-01  0.4000E-01
     -4.439  0.0000E+00  0.0000E+00  0.4000E-01  0.4000E-01
     -4.341  0.0000E+00  0.0000E+00  0.4000E-01  0.4000E-01
     -4.244  0.0000E+00  0.0000E+00  0.4000E-01  0.4000E-01
     -4.147  0.0000E+00  0.0000E+00  0.4000E-01  0.4000E-01
     -4.050  0.0000E+00  0.0000E+00  0.4000E-01  0.4000E-01
     -3.953  0.0000E+00  0.0000E+00  0.4000E-01  0.4000E-01
     -3.855  0.0000E+00  0.0000E+00  0.4000E-01  0.4000E-01
     -3.758  0.0000E+00  0.0000E+00  0.4000E-01  0.4000E-01
     -3.661  0.0000E+00  0.0000E+00  0.4000E-01  0.4000E-01
     -3.564  0.0000E+00  0.0000E+00  0.4000E-01  0.4000E-01
     -3.466  0.0000E+00  0.0000E+00  0.4000E-01  0.4000E-01
     -3.369  0.0000E+00  0.0000E+00  0.4000E-01  0.4000E-01
     -3.272  0.0000E+00  0.0000E+00  0.4000E-01  0.4000E-01
     -3.175  0.0000E+00  0.0000E+00  0.4000E-01  0.4000E-01
     -3.077  0.0000E+00  0.0000E+00  0.4000E-01  0.4000E-01
     -2.980  0.0000E+00  0.0000E+00  0.4000E-01  0.4000E-01
     -2.883  0.0000E+00  0.0000E+00  0.4000E-01  0.4000E-01
     -2.786  0.0000E+00  0.0000E+00  0.4000E-01  0.4000E-01
     -2.688  0.0000E+00  0.0000E+00  0.4000E-01  0.4000E-01
     -2.591  0.0000E+00  0.0000E+00  0.4000E-01  0.4000E-01
     -2.494  0.0000E+00  0.0000E+00  0.4000E-01  0.4000E-01
     -2.397  0.0000E+00  0.0000E+00  0.4000E-01  0.4000E-01
     -2.299  0.0000E+00  0.0000E+00  0.4000E-01  0.4000E-01
     -2.202  0.0000E+00  0.0000E+00  0.4000E-01  0.4000E-01
     -2.105  0.0000E+00  0.0000E+00  0.4000E-01  0.4000E-01
     -2.008  0.0000E+00  0.0000E+00  0.4000E-01  0.4000E-01
     -1.911  0.0000E+00  0.0000E+00  0.4000E-01  0.4000E-01
     -1.813  0.0000E+00  0.0000E+00  0.4000E-01  0.4000E-01
     -1.716  0.0000E+00  0.0000E+00  0.4000E-01  0.4000E-01
     -1.619  0.0000E+00  0.0000E+00  0.4000E-01  0.4000E-01
     -1.522  0.5363E-05  0.5363E-05  0.4000E-01  0.4000E-01
     -1.424  0.3213E-04  0.3213E-04  0.4000E-01  0.4000E-01
     -1.327  0.2241E-03  0.2241E-03  0.4003E-01  0.4003E-01
     -1.230  0.1540E-02  0.1540E-02  0.4018E-01  0.4018E-01
     -1.133  0.9597E-02  0.9597E-02  0.4111E-01  0.4111E-01
     -1.035  0.3649E-01  0.3649E-01  0.4466E-01  0.4466E-01
     -0.938  0.4045E-01  0.4045E-01  0.4859E-01  0.4859E-01
     -0.841  0.1214E-01  0.1214E-01  0.4977E-01  0.4977E-01
     -0.744  0.2014E-02  0.2014E-02  0.4997E-01  0.4997E-01
     -0.646  0.2947E-03  0.2947E-03  0.5000E-01  0.5000E-01
     -0.549  0.0000E+00  0.0000E+00  0.5000E-01  0.5000E-01
     -0.452  0.1190E-04  0.1190E-04  0.5000E-01  0.5000E-01
     -0.355  0.7124E-04  0.7124E-04  0.5001E-01  0.5001E-01
     -0.257  0.5196E-03  0.5196E-03  0.5006E-01  0.5006E-01
     -0.160  0.3480E-02  0.3480E-02  0.5040E-01  0.5040E-01
     -0.063  0.1940E-01  0.1940E-01  0.5228E-01  0.5228E-01
      0.034  0.5221E-01  0.5221E-01  0.5736E-01  0.5736E-01
      0.131  0.5878E-01  0.5878E-01  0.6308E-01  0.6308E-01
      0.229  0.5992E-01  0.5992E-01  0.6890E-01  0.6890E-01
      0.326  0.5610E-01  0.5610E-01  0.7436E-01  0.7436E-01
      0.423  0.6833E-01  0.6833E-01  0.8102E-01  0.8102E-01
      0.520  0.8816E-01  0.8816E-01  0.8959E-01  0.8959E-01
      0.618  0.9687E-01  0.9687E-01  0.9902E-01  0.9902E-01
      0.715  0.7599E-01  0.7599E-01  0.1064E+00  0.1064E+00
      0.812  0.5046E-01  0.5047E-01  0.1113E+00  0.1113E+00
      0.909  0.5697E-01  0.5703E-01  0.1169E+00  0.1169E+00
      1.007  0.6113E-01  0.6149E-01  0.1228E+00  0.1229E+00
      1.104  0.9211E-01  0.9419E-01  0.1318E+00  0.1320E+00
      1.201  0.1329E+00  0.1384E+00  0.1447E+00  0.1455E+00
      1.298  0.1130E+00  0.1104E+00  0.1557E+00  0.1563E+00
      1.396  0.3649E-01  0.3225E-01  0.1593E+00  0.1594E+00
      1.493  0.6226E-02  0.5283E-02  0.1599E+00  0.1599E+00
      1.590  0.8283E-03  0.6841E-03  0.1600E+00  0.1600E+00
      1.687  0.0000E+00  0.0000E+00  0.1600E+00  0.1600E+00
      1.785  0.0000E+00  0.0000E+00  0.1600E+00  0.1600E+00
      1.882  0.0000E+00  0.0000E+00  0.1600E+00  0.1600E+00
      1.979  0.0000E+00  0.0000E+00  0.1600E+00  0.1600E+00
      2.076  0.0000E+00  0.0000E+00  0.1600E+00  0.1600E+00
      2.174  0.0000E+00  0.0000E+00  0.1600E+00  0.1600E+00
      2.271  0.0000E+00  0.0000E+00  0.1600E+00  0.1600E+00
      2.368  0.0000E+00  0.0000E+00  0.1600E+00  0.1600E+00
      2.465  0.0000E+00  0.0000E+00  0.1600E+00  0.1600E+00
      2.562  0.0000E+00  0.0000E+00  0.1600E+00  0.1600E+00
      2.56245381    -26.60907471  301     -5.99448041      1.00000000
    -26.609  0.0000E+00  0.0000E+00  0.0000E+00  0.0000E+00  0.0000E+00  0.0000E+00  0.0000E+00  0.0000E+00  0.0000E+00  0.0000E+00  0.0000E+00  0.0000E+00  0.0000E+00  0.0000E+00  0.0000E+00  0.0000E+00  0.0000E+00  0.0000E+00
    -26.512  0.0000E+00  0.0000E+00  0.0000E+00  0.0000E+00  0.0000E+00  0.0000E+00  0.0000E+00  0.0000E+00  0.0000E+00  0.0000E+00  0.0000E+00  0.0000E+00  0.0000E+00  0.0000E+00  0.0000E+00  0.0000E+00  0.0000E+00  0.0000E+00
    -26.415  0.0000E+00  0.0000E+00  0.0000E+00  0.0000E+00  0.0000E+00  0.0000E+00  0.0000E+00  0.0000E+00  0.0000E+00  0.0000E+00  0.0000E+00  0.0000E+00  0.0000E+00  0.0000E+00  0.0000E+00  0.0000E+00  0.0000E+00  0.0000E+00
    -26.317  0.0000E+00  0.0000E+00  0.0000E+00  0.0000E+00  0.0000E+00  0.0000E+00  0.0000E+00  0.0000E+00  0.0000E+00  0.0000E+00  0.0000E+00  0.0000E+00  0.0000E+00  0.0000E+00  0.0000E+00  0.0000E+00  0.0000E+00  0.0000E+00
    -26.220  0.0000E+00  0.0000E+00  0.0000E+00  0.0000E+00  0.0000E+00  0.0000E+00  0.0000E+00  0.0000E+00  0.0000E+00  0.0000E+00  0.0000E+00  0.0000E+00  0.0000E+00  0.0000E+00  0.0000E+00  0.0000E+00  0.0000E+00  0.0000E+00
    -26.123  0.0000E+00  0.0000E+00  0.0000E+00  0.0000E+00  0.0000E+00  0.0000E+00  0.0000E+00  0.0000E+00  0.0000E+00  0.0000E+00  0.0000E+00  0.0000E+00  0.0000E+00  0.0000E+00  0.0000E+00  0.0000E+00  0.0000E+00  0.0000E+00
    -26.026  0.0000E+00  0.0000E+00  0.0000E+00  0.0000E+00  0.0000E+00  0.0000E+00  0.0000E+00  0.0000E+00  0.0000E+00  0.0000E+00  0.0000E+00  0.0000E+00  0.0000E+00  0.0000E+00  0.0000E+00  0.0000E+00  0.0000E+00  0.0000E+00
    -25.928  0.0000E+00  0.0000E+00  0.0000E+00  0.0000E+00  0.0000E+00  0.0000E+00  0.0000E+00  0.0000E+00  0.0000E+00  0.0000E+00  0.0000E+00  0.0000E+00  0.0000E+00  0.0000E+00  0.0000E+00  0.0000E+00  0.0000E+00  0.0000E+00
    -25.831  0.0000E+00  0.0000E+00  0.0000E+00  0.0000E+00  0.0000E+00  0.0000E+00  0.0000E+00  0.0000E+00  0.0000E+00  0.0000E+00  0.0000E+00  0.0000E+00  0.0000E+00  0.0000E+00  0.0000E+00  0.0000E+00  0.0000E+00  0.0000E+00
    -25.734  0.1214E-03  0.1214E-03  0.2161E-04  0.2161E-04  0.4187E-05  0.4187E-05  0.3334E-22  0.2684E-23  0.0000E+00  0.0000E+00  0.0000E+00  0.0000E+00  0.0000E+00  0.0000E+00  0.0000E+00  0.0000E+00  0.0000E+00  0.0000E+00
    -25.637  0.7267E-03  0.7267E-03  0.1294E-03  0.1294E-03  0.2507E-04  0.2507E-04  0.1996E-21  0.1607E-22  0.0000E+00  0.0000E+00  0.0000E+00  0.0000E+00  0.0000E+00  0.0000E+00  0.0000E+00  0.0000E+00  0.0000E+00  0.0000E+00
    -25.539  0.5051E-02  0.5051E-02  0.8995E-03  0.8995E-03  0.1743E-03  0.1743E-03  0.1388E-20  0.1117E-21  0.0000E+00  0.0000E+00  0.0000E+00  0.0000E+00  0.0000E+00  0.0000E+00  0.0000E+00  0.0000E+00  0.0000E+00  0.0000E+00
    -25.442  0.3394E-01  0.3394E-01  0.6044E-02  0.6044E-02  0.1171E-02  0.1171E-02  0.9325E-20  0.7507E-21  0.0000E+00  0.0000E+00  0.0000E+00  0.0000E+00  0.0000E+00  0.0000E+00  0.0000E+00  0.0000E+00  0.0000E+00  0.0000E+00
    -25.345  0.1850E+00  0.1850E+00  0.3295E-01  0.3295E-01  0.6384E-02  0.6384E-02  0.5084E-19  0.4093E-20  0.0000E+00  0.0000E+00  0.0000E+00  0.0000E+00  0.0000E+00  0.0000E+00  0.0000E+00  0.0000E+00  0.0000E+00  0.0000E+00
    -25.248  0.4450E+00  0.4450E+00  0.7924E-01  0.7924E-01  0.1535E-01  0.1535E-01  0.1222E-18  0.9841E-20  0.0000E+00  0.0000E+00  0.0000E+00  0.0000E+00  0.0000E+00  0.0000E+00  0.0000E+00  0.0000E+00  0.0000E+00  0.0000E+00
    -25.150  0.2644E+00  0.2644E+00  0.4708E-01  0.4708E-01  0.9122E-02  0.9122E-02  0.7263E-19  0.5847E-20  0.0000E+00  0.0000E+00  0.0000E+00  0.0000E+00  0.0000E+00  0.0000E+00  0.0000E+00  0.0000E+00  0.0000E+00  0.0000E+00
    -25.053  0.5589E-01  0.5589E-01  0.9953E-02  0.9953E-02  0.1928E-02  0.1928E-02  0.1535E-19  0.1236E-20  0.0000E+00  0.0000E+00  0.0000E+00  0.0000E+00  0.0000E+00  0.0000E+00  0.0000E+00  0.0000E+00  0.0000E+00  0.0000E+00
    -24.956  0.8545E-02  0.8545E-02  0.1522E-02  0.1522E-02  0.2948E-03  0.2948E-03  0.2348E-20  0.1890E-21  0.0000E+00  0.0000E+00  0.0000E+00  0.0000E+00  0.0000E+00  0.0000E+00  0.0000E+00  0.0000E+00  0.0000E+00  0.0000E+00
    -24.859  0.0000E+00  0.0000E+00  0.0000E+00  0.0000E+00  0.0000E+00  0.0000E+00  0.0000E+00  0.0000E+00  0.0000E+00  0.0000E+00  0.0000E+00  0.0000E+00  0.0000E+00  0.0000E+00  0.0000E+00  0.0000E+00  0.0000E+00  0.0000E+00
    -24.762  0.0000E+00  0.0000E+00  0.0000E+00  0.0000E+00  0.0000E+00  0.0000E+00  0.0000E+00  0.0000E+00  0.0000E+00  0.0000E+00  0.0000E+00  0.0000E+00  0.0000E+00  0.0000E+00  0.0000E+00  0.0000E+00  0.0000E+00  0.0000E+00
    -24.664  0.0000E+00  0.0000E+00  0.0000E+00  0.0000E+00  0.0000E+00  0.0000E+00  0.0000E+00  0.0000E+00  0.0000E+00  0.0000E+00  0.0000E+00  0.0000E+00  0.0000E+00  0.0000E+00  0.0000E+00  0.0000E+00  0.0000E+00  0.0000E+00
    -24.567  0.0000E+00  0.0000E+00  0.0000E+00  0.0000E+00  0.0000E+00  0.0000E+00  0.0000E+00  0.0000E+00  0.0000E+00  0.0000E+00  0.0000E+00  0.0000E+00  0.0000E+00  0.0000E+00  0.0000E+00  0.0000E+00  0.0000E+00  0.0000E+00
    -24.470  0.0000E+00  0.0000E+00  0.0000E+00  0.0000E+00  0.0000E+00  0.0000E+00  0.0000E+00  0.0000E+00  0.0000E+00  0.0000E+00  0.0000E+00  0.0000E+00  0.0000E+00  0.0000E+00  0.0000E+00  0.0000E+00  0.0000E+00  0.0000E+00
    -24.373  0.0000E+00  0.0000E+00  0.0000E+00  0.0000E+00  0.0000E+00  0.0000E+00  0.0000E+00  0.0000E+00  0.0000E+00  0.0000E+00  0.0000E+00  0.0000E+00  0.0000E+00  0.0000E+00  0.0000E+00  0.0000E+00  0.0000E+00  0.0000E+00
    -24.275  0.0000E+00  0.0000E+00  0.0000E+00  0.0000E+00  0.0000E+00  0.0000E+00  0.0000E+00  0.0000E+00  0.0000E+00  0.0000E+00  0.0000E+00  0.0000E+00  0.0000E+00  0.0000E+00  0.0000E+00  0.0000E+00  0.0000E+00  0.0000E+00
    -24.178  0.0000E+00  0.0000E+00  0.0000E+00  0.0000E+00  0.0000E+00  0.0000E+00  0.0000E+00  0.0000E+00  0.0000E+00  0.0000E+00  0.0000E+00  0.0000E+00  0.0000E+00  0.0000E+00  0.0000E+00  0.0000E+00  0.0000E+00  0.0000E+00
    -24.081  0.0000E+00  0.0000E+00  0.0000E+00  0.0000E+00  0.0000E+00  0.0000E+00  0.0000E+00  0.0000E+00  0.0000E+00  0.0000E+00  0.0000E+00  0.0000E+00  0.0000E+00  0.0000E+00  0.0000E+00  0.0000E+00  0.0000E+00  0.0000E+00
    -23.984  0.0000E+00  0.0000E+00  0.0000E+00  0.0000E+00  0.0000E+00  0.0000E+00  0.0000E+00  0.0000E+00  0.0000E+00  0.0000E+00  0.0000E+00  0.0000E+00  0.0000E+00  0.0000E+00  0.0000E+00  0.0000E+00  0.0000E+00  0.0000E+00
    -23.886  0.0000E+00  0.0000E+00  0.0000E+00  0.0000E+00  0.0000E+00  0.0000E+00  0.0000E+00  0.0000E+00  0.0000E+00  0.0000E+00  0.0000E+00  0.0000E+00  0.0000E+00  0.0000E+00  0.0000E+00  0.0000E+00  0.0000E+00  0.0000E+00
    -23.789  0.0000E+00  0.0000E+00  0.0000E+00  0.0000E+00  0.0000E+00  0.0000E+00  0.0000E+00  0.0000E+00  0.0000E+00  0.0000E+00  0.0000E+00  0.0000E+00  0.0000E+00  0.0000E+00  0.0000E+00  0.0000E+00  0.0000E+00  0.0000E+00
    -23.692  0.0000E+00  0.0000E+00  0.0000E+00  0.0000E+00  0.0000E+00  0.0000E+00  0.0000E+00  0.0000E+00  0.0000E+00  0.0000E+00  0.0000E+00  0.0000E+00  0.0000E+00  0.0000E+00  0.0000E+00  0.0000E+00  0.0000E+00  0.0000E+00
    -23.595  0.0000E+00  0.0000E+00  0.0000E+00  0.0000E+00  0.0000E+00  0.0000E+00  0.0000E+00  0.0000E+00  0.0000E+00  0.0000E+00  0.0000E+00  0.0000E+00  0.0000E+00  0.0000E+00  0.0000E+00  0.0000E+00  0.0000E+00  0.0000E+00
    -23.497  0.0000E+00  0.0000E+00  0.0000E+00  0.0000E+00  0.0000E+00  0.0000E+00  0.0000E+00  0.0000E+00  0.0000E+00  0.0000E+00  0.0000E+00  0.0000E+00  0.0000E+00  0.0000E+00  0.0000E+00  0.0000E+00  0.0000E+00  0.0000E+00
    -23.400  0.0000E+00  0.0000E+00  0.0000E+00  0.0000E+00  0.0000E+00  0.0000E+00  0.0000E+00  0.0000E+00  0.0000E+00  0.0000E+00  0.0000E+00  0.0000E+00  0.0000E+00  0.0000E+00  0.0000E+00  0.0000E+00  0.0000E+00  0.0000E+00
    -23.303  0.0000E+00  0.0000E+00  0.0000E+00  0.0000E+00  0.0000E+00  0.0000E+00  0.0000E+00  0.0000E+00  0.0000E+00  0.0000E+00  0.0000E+00  0.0000E+00  0.0000E+00  0.0000E+00  0.0000E+00  0.0000E+00  0.0000E+00  0.0000E+00
    -23.206  0.0000E+00  0.0000E+00  0.0000E+00  0.0000E+00  0.0000E+00  0.0000E+00  0.0000E+00  0.0000E+00  0.0000E+00  0.0000E+00  0.0000E+00  0.0000E+00  0.0000E+00  0.0000E+00  0.0000E+00  0.0000E+00  0.0000E+00  0.0000E+00
    -23.108  0.0000E+00  0.0000E+00  0.0000E+00  0.0000E+00  0.0000E+00  0.0000E+00  0.0000E+00  0.0000E+00  0.0000E+00  0.0000E+00  0.0000E+00  0.0000E+00  0.0000E+00  0.0000E+00  0.0000E+00  0.0000E+00  0.0000E+00  0.0000E+00
    -23.011  0.0000E+00  0.0000E+00  0.0000E+00  0.0000E+00  0.0000E+00  0.0000E+00  0.0000E+00  0.0000E+00  0.0000E+00  0.0000E+00  0.0000E+00  0.0000E+00  0.0000E+00  0.0000E+00  0.0000E+00  0.0000E+00  0.0000E+00  0.0000E+00
    -22.914  0.0000E+00  0.0000E+00  0.0000E+00  0.0000E+00  0.0000E+00  0.0000E+00  0.0000E+00  0.0000E+00  0.0000E+00  0.0000E+00  0.0000E+00  0.0000E+00  0.0000E+00  0.0000E+00  0.0000E+00  0.0000E+00  0.0000E+00  0.0000E+00
    -22.817  0.0000E+00  0.0000E+00  0.0000E+00  0.0000E+00  0.0000E+00  0.0000E+00  0.0000E+00  0.0000E+00  0.0000E+00  0.0000E+00  0.0000E+00  0.0000E+00  0.0000E+00  0.0000E+00  0.0000E+00  0.0000E+00  0.0000E+00  0.0000E+00
    -22.720  0.0000E+00  0.0000E+00  0.0000E+00  0.0000E+00  0.0000E+00  0.0000E+00  0.0000E+00  0.0000E+00  0.0000E+00  0.0000E+00  0.0000E+00  0.0000E+00  0.0000E+00  0.0000E+00  0.0000E+00  0.0000E+00  0.0000E+00  0.0000E+00
    -22.622  0.0000E+00  0.0000E+00  0.0000E+00  0.0000E+00  0.0000E+00  0.0000E+00  0.0000E+00  0.0000E+00  0.0000E+00  0.0000E+00  0.0000E+00  0.0000E+00  0.0000E+00  0.0000E+00  0.0000E+00  0.0000E+00  0.0000E+00  0.0000E+00
    -22.525  0.0000E+00  0.0000E+00  0.0000E+00  0.0000E+00  0.0000E+00  0.0000E+00  0.0000E+00  0.0000E+00  0.0000E+00  0.0000E+00  0.0000E+00  0.0000E+00  0.0000E+00  0.0000E+00  0.0000E+00  0.0000E+00  0.0000E+00  0.0000E+00
    -22.428  0.0000E+00  0.0000E+00  0.0000E+00  0.0000E+00  0.0000E+00  0.0000E+00  0.0000E+00  0.0000E+00  0.0000E+00  0.0000E+00  0.0000E+00  0.0000E+00  0.0000E+00  0.0000E+00  0.0000E+00  0.0000E+00  0.0000E+00  0.0000E+00
    -22.331  0.0000E+00  0.0000E+00  0.0000E+00  0.0000E+00  0.0000E+00  0.0000E+00  0.0000E+00  0.0000E+00  0.0000E+00  0.0000E+00  0.0000E+00  0.0000E+00  0.0000E+00  0.0000E+00  0.0000E+00  0.0000E+00  0.0000E+00  0.0000E+00
    -22.233  0.0000E+00  0.0000E+00  0.0000E+00  0.0000E+00  0.0000E+00  0.0000E+00  0.0000E+00  0.0000E+00  0.0000E+00  0.0000E+00  0.0000E+00  0.0000E+00  0.0000E+00  0.0000E+00  0.0000E+00  0.0000E+00  0.0000E+00  0.0000E+00
    -22.136  0.0000E+00  0.0000E+00  0.0000E+00  0.0000E+00  0.0000E+00  0.0000E+00  0.0000E+00  0.0000E+00  0.0000E+00  0.0000E+00  0.0000E+00  0.0000E+00  0.0000E+00  0.0000E+00  0.0000E+00  0.0000E+00  0.0000E+00  0.0000E+00
    -22.039  0.0000E+00  0.0000E+00  0.0000E+00  0.0000E+00  0.0000E+00  0.0000E+00  0.0000E+00  0.0000E+00  0.0000E+00  0.0000E+00  0.0000E+00  0.0000E+00  0.0000E+00  0.0000E+00  0.0000E+00  0.0000E+00  0.0000E+00  0.0000E+00
    -21.942  0.0000E+00  0.0000E+00  0.0000E+00  0.0000E+00  0.0000E+00  0.0000E+00  0.0000E+00  0.0000E+00  0.0000E+00  0.0000E+00  0.0000E+00  0.0000E+00  0.0000E+00  0.0000E+00  0.0000E+00  0.0000E+00  0.0000E+00  0.0000E+00
    -21.844  0.0000E+00  0.0000E+00  0.0000E+00  0.0000E+00  0.0000E+00  0.0000E+00  0.0000E+00  0.0000E+00  0.0000E+00  0.0000E+00  0.0000E+00  0.0000E+00  0.0000E+00  0.0000E+00  0.0000E+00  0.0000E+00  0.0000E+00  0.0000E+00
    -21.747  0.0000E+00  0.0000E+00  0.0000E+00  0.0000E+00  0.0000E+00  0.0000E+00  0.0000E+00  0.0000E+00  0.0000E+00  0.0000E+00  0.0000E+00  0.0000E+00  0.0000E+00  0.0000E+00  0.0000E+00  0.0000E+00  0.0000E+00  0.0000E+00