 Entering Gaussian System, Link 0=g16
 Input=c5f12.gjf
 Output=c5f12.log
 Initial command:
 /opt/ohpc/pub/apps/gaussian/avx2/g16/l1.exe "/scratch/g16-tmp/Gau-1823998.inp" -scrdir="/scratch/g16-tmp/"
 Entering Link 1 = /opt/ohpc/pub/apps/gaussian/avx2/g16/l1.exe PID=   1823999.
  
 Copyright (c) 1988-2017, Gaussian, Inc.  All Rights Reserved.
  
 This is part of the Gaussian(R) 16 program.  It is based on
 the Gaussian(R) 09 system (copyright 2009, Gaussian, Inc.),
 the Gaussian(R) 03 system (copyright 2003, Gaussian, Inc.),
 the Gaussian(R) 98 system (copyright 1998, Gaussian, Inc.),
 the Gaussian(R) 94 system (copyright 1995, Gaussian, Inc.),
 the Gaussian 92(TM) system (copyright 1992, Gaussian, Inc.),
 the Gaussian 90(TM) system (copyright 1990, Gaussian, Inc.),
 the Gaussian 88(TM) system (copyright 1988, Gaussian, Inc.),
 the Gaussian 86(TM) system (copyright 1986, Carnegie Mellon
 University), and the Gaussian 82(TM) system (copyright 1983,
 Carnegie Mellon University). Gaussian is a federally registered
 trademark of Gaussian, Inc.
  
 This software contains proprietary and confidential information,
 including trade secrets, belonging to Gaussian, Inc.
  
 This software is provided under written license and may be
 used, copied, transmitted, or stored only in accord with that
 written license.
  
 The following legend is applicable only to US Government
 contracts under FAR:
  
                    RESTRICTED RIGHTS LEGEND
  
 Use, reproduction and disclosure by the US Government is
 subject to restrictions as set forth in subparagraphs (a)
 and (c) of the Commercial Computer Software - Restricted
 Rights clause in FAR 52.227-19.
  
 Gaussian, Inc.
 340 Quinnipiac St., Bldg. 40, Wallingford CT 06492
  
  
 ---------------------------------------------------------------
 Warning -- This program may not be used in any manner that
 competes with the business of Gaussian, Inc. or will provide
 assistance to any competitor of Gaussian, Inc.  The licensee
 of this program is prohibited from giving any competitor of
 Gaussian, Inc. access to this program.  By using this program,
 the user acknowledges that Gaussian, Inc. is engaged in the
 business of creating and licensing software in the field of
 computational chemistry and represents and warrants to the
 licensee that it is not a competitor of Gaussian, Inc. and that
 it will not use this program in any manner prohibited above.
 ---------------------------------------------------------------
  

 Cite this work as:
 Gaussian 16, Revision B.01,
 M. J. Frisch, G. W. Trucks, H. B. Schlegel, G. E. Scuseria, 
 M. A. Robb, J. R. Cheeseman, G. Scalmani, V. Barone, 
 G. A. Petersson, H. Nakatsuji, X. Li, M. Caricato, A. V. Marenich, 
 J. Bloino, B. G. Janesko, R. Gomperts, B. Mennucci, H. P. Hratchian, 
 J. V. Ortiz, A. F. Izmaylov, J. L. Sonnenberg, D. Williams-Young, 
 F. Ding, F. Lipparini, F. Egidi, J. Goings, B. Peng, A. Petrone, 
 T. Henderson, D. Ranasinghe, V. G. Zakrzewski, J. Gao, N. Rega, 
 G. Zheng, W. Liang, M. Hada, M. Ehara, K. Toyota, R. Fukuda, 
 J. Hasegawa, M. Ishida, T. Nakajima, Y. Honda, O. Kitao, H. Nakai, 
 T. Vreven, K. Throssell, J. A. Montgomery, Jr., J. E. Peralta, 
 F. Ogliaro, M. J. Bearpark, J. J. Heyd, E. N. Brothers, K. N. Kudin, 
 V. N. Staroverov, T. A. Keith, R. Kobayashi, J. Normand, 
 K. Raghavachari, A. P. Rendell, J. C. Burant, S. S. Iyengar, 
 J. Tomasi, M. Cossi, J. M. Millam, M. Klene, C. Adamo, R. Cammi, 
 J. W. Ochterski, R. L. Martin, K. Morokuma, O. Farkas, 
 J. B. Foresman, and D. J. Fox, Gaussian, Inc., Wallingford CT, 2016.
 
 ******************************************
 Gaussian 16:  ES64L-G16RevB.01 20-Dec-2017
                 4-Aug-2023 
 ******************************************
 %chk=neutral_9.chk
 %nprocs=10
 Will use up to   10 processors via shared memory.
 ---------------------------
 # opt freq b3lyp/6-31g(d,p)
 ---------------------------
 1/18=20,19=15,26=3,38=1/1,3;
 2/9=110,12=2,17=6,18=5,40=1/2;
 3/5=1,6=6,7=101,11=2,25=1,30=1,71=1,74=-5/1,2,3;
 4//1;
 5/5=2,38=5/2;
 6/7=2,8=2,9=2,10=2,28=1/1;
 7//1,2,3,16;
 1/18=20,19=15,26=3/3(2);
 2/9=110/2;
 99//99;
 2/9=110/2;
 3/5=1,6=6,7=101,11=2,25=1,30=1,71=1,74=-5/1,2,3;
 4/5=5,16=3,69=1/1;
 5/5=2,38=5/2;
 7//1,2,3,16;
 1/18=20,19=15,26=3/3(-5);
 2/9=110/2;
 6/7=2,8=2,9=2,10=2,19=2,28=1/1;
 99/9=1/99;
 -----
 C5F12
 -----
 Symbolic Z-matrix:
 Charge =  0 Multiplicity = 1
 C                     0.        0.        0. 
 C                     1.24303   0.71049   0.67415 
 C                     2.35035  -0.2582    1.27054 
 F                     3.40738   0.44738   1.84407 
 F                     1.81059  -1.08906   2.24877 
 F                     2.87539  -1.08393   0.28004 
 F                     1.84124   1.55294  -0.26697 
 F                     0.78101   1.54784   1.6933 
 C                    -1.11968   0.94178  -0.60314 
 C                    -2.35452   0.20236  -1.27294 
 F                    -1.93764  -0.61279  -2.32191 
 F                    -3.29162   1.10314  -1.77743 
 F                    -3.00245  -0.61791  -0.35318 
 F                    -1.5924    1.78017   0.41022 
 F                    -0.53218   1.78527  -1.55004 
 F                    -0.58998  -0.84883   0.93764 
 F                     0.46362  -0.84376  -1.01039 
 

 GradGradGradGradGradGradGradGradGradGradGradGradGradGradGradGradGradGrad
 Berny optimization.
 Initialization pass.
                           ----------------------------
                           !    Initial Parameters    !
                           ! (Angstroms and Degrees)  !
 --------------------------                            --------------------------
 ! Name  Definition              Value          Derivative Info.                !
 --------------------------------------------------------------------------------
 ! R1    R(1,2)                  1.5825         estimate D2E/DX2                !
 ! R2    R(1,9)                  1.5825         estimate D2E/DX2                !
 ! R3    R(1,16)                 1.3956         estimate D2E/DX2                !
 ! R4    R(1,17)                 1.3956         estimate D2E/DX2                !
 ! R5    R(2,3)                  1.5875         estimate D2E/DX2                !
 ! R6    R(2,7)                  1.3976         estimate D2E/DX2                !
 ! R7    R(2,8)                  1.3976         estimate D2E/DX2                !
 ! R8    R(3,4)                  1.3943         estimate D2E/DX2                !
 ! R9    R(3,5)                  1.3923         estimate D2E/DX2                !
 ! R10   R(3,6)                  1.3923         estimate D2E/DX2                !
 ! R11   R(9,10)                 1.5875         estimate D2E/DX2                !
 ! R12   R(9,14)                 1.3976         estimate D2E/DX2                !
 ! R13   R(9,15)                 1.3976         estimate D2E/DX2                !
 ! R14   R(10,11)                1.3923         estimate D2E/DX2                !
 ! R15   R(10,12)                1.3943         estimate D2E/DX2                !
 ! R16   R(10,13)                1.3923         estimate D2E/DX2                !
 ! A1    A(2,1,9)              116.8026         estimate D2E/DX2                !
 ! A2    A(2,1,16)             108.5968         estimate D2E/DX2                !
 ! A3    A(2,1,17)             108.5968         estimate D2E/DX2                !
 ! A4    A(9,1,16)             108.5968         estimate D2E/DX2                !
 ! A5    A(9,1,17)             108.5968         estimate D2E/DX2                !
 ! A6    A(16,1,17)            105.0177         estimate D2E/DX2                !
 ! A7    A(1,2,3)              115.7192         estimate D2E/DX2                !
 ! A8    A(1,2,7)              108.6609         estimate D2E/DX2                !
 ! A9    A(1,2,8)              108.6609         estimate D2E/DX2                !
 ! A10   A(3,2,7)              108.7979         estimate D2E/DX2                !
 ! A11   A(3,2,8)              108.7979         estimate D2E/DX2                !
 ! A12   A(7,2,8)              105.7471         estimate D2E/DX2                !
 ! A13   A(2,3,4)              111.9955         estimate D2E/DX2                !
 ! A14   A(2,3,5)              110.9567         estimate D2E/DX2                !
 ! A15   A(2,3,6)              110.9567         estimate D2E/DX2                !
 ! A16   A(4,3,5)              107.8702         estimate D2E/DX2                !
 ! A17   A(4,3,6)              107.8702         estimate D2E/DX2                !
 ! A18   A(5,3,6)              106.9838         estimate D2E/DX2                !
 ! A19   A(1,9,10)             115.7192         estimate D2E/DX2                !
 ! A20   A(1,9,14)             108.6609         estimate D2E/DX2                !
 ! A21   A(1,9,15)             108.6609         estimate D2E/DX2                !
 ! A22   A(10,9,14)            108.7979         estimate D2E/DX2                !
 ! A23   A(10,9,15)            108.7979         estimate D2E/DX2                !
 ! A24   A(14,9,15)            105.7471         estimate D2E/DX2                !
 ! A25   A(9,10,11)            110.9567         estimate D2E/DX2                !
 ! A26   A(9,10,12)            111.9955         estimate D2E/DX2                !
 ! A27   A(9,10,13)            110.9567         estimate D2E/DX2                !
 ! A28   A(11,10,12)           107.8702         estimate D2E/DX2                !
 ! A29   A(11,10,13)           106.9838         estimate D2E/DX2                !
 ! A30   A(12,10,13)           107.8702         estimate D2E/DX2                !
 ! D1    D(9,1,2,3)            180.0            estimate D2E/DX2                !
 ! D2    D(9,1,2,7)            -57.3038         estimate D2E/DX2                !
 ! D3    D(9,1,2,8)             57.3038         estimate D2E/DX2                !
 ! D4    D(16,1,2,3)            56.8413         estimate D2E/DX2                !
 ! D5    D(16,1,2,7)           179.5375         estimate D2E/DX2                !
 ! D6    D(16,1,2,8)           -65.8549         estimate D2E/DX2                !
 ! D7    D(17,1,2,3)           -56.8413         estimate D2E/DX2                !
 ! D8    D(17,1,2,7)            65.8549         estimate D2E/DX2                !
 ! D9    D(17,1,2,8)          -179.5375         estimate D2E/DX2                !
 ! D10   D(2,1,9,10)           180.0            estimate D2E/DX2                !
 ! D11   D(2,1,9,14)           -57.3038         estimate D2E/DX2                !
 ! D12   D(2,1,9,15)            57.3038         estimate D2E/DX2                !
 ! D13   D(16,1,9,10)          -56.8413         estimate D2E/DX2                !
 ! D14   D(16,1,9,14)           65.8549         estimate D2E/DX2                !
 ! D15   D(16,1,9,15)         -179.5375         estimate D2E/DX2                !
 ! D16   D(17,1,9,10)           56.8413         estimate D2E/DX2                !
 ! D17   D(17,1,9,14)          179.5375         estimate D2E/DX2                !
 ! D18   D(17,1,9,15)          -65.8549         estimate D2E/DX2                !
 ! D19   D(1,2,3,4)            180.0            estimate D2E/DX2                !
 ! D20   D(1,2,3,5)            -59.3962         estimate D2E/DX2                !
 ! D21   D(1,2,3,6)             59.3962         estimate D2E/DX2                !
 ! D22   D(7,2,3,4)             57.3763         estimate D2E/DX2                !
 ! D23   D(7,2,3,5)            177.9801         estimate D2E/DX2                !
 ! D24   D(7,2,3,6)            -63.2276         estimate D2E/DX2                !
 ! D25   D(8,2,3,4)            -57.3763         estimate D2E/DX2                !
 ! D26   D(8,2,3,5)             63.2276         estimate D2E/DX2                !
 ! D27   D(8,2,3,6)           -177.9801         estimate D2E/DX2                !
 ! D28   D(1,9,10,11)          -59.3962         estimate D2E/DX2                !
 ! D29   D(1,9,10,12)          180.0            estimate D2E/DX2                !
 ! D30   D(1,9,10,13)           59.3962         estimate D2E/DX2                !
 ! D31   D(14,9,10,11)         177.9801         estimate D2E/DX2                !
 ! D32   D(14,9,10,12)          57.3763         estimate D2E/DX2                !
 ! D33   D(14,9,10,13)         -63.2276         estimate D2E/DX2                !
 ! D34   D(15,9,10,11)          63.2276         estimate D2E/DX2                !
 ! D35   D(15,9,10,12)         -57.3763         estimate D2E/DX2                !
 ! D36   D(15,9,10,13)        -177.9801         estimate D2E/DX2                !
 --------------------------------------------------------------------------------
 Trust Radius=3.00D-01 FncErr=1.00D-07 GrdErr=1.00D-06 EigMax=2.50D+02 EigMin=1.00D-04
 Number of steps in this run=     92 maximum allowed number of steps=    102.
 GradGradGradGradGradGradGradGradGradGradGradGradGradGradGradGradGradGrad

                          Input orientation:                          
 ---------------------------------------------------------------------
 Center     Atomic      Atomic             Coordinates (Angstroms)
 Number     Number       Type             X           Y           Z
 ---------------------------------------------------------------------
      1          6           0        0.000000    0.000000    0.000000
      2          6           0        1.243032    0.710492    0.674153
      3          6           0        2.350351   -0.258201    1.270535
      4          9           0        3.407378    0.447380    1.844073
      5          9           0        1.810591   -1.089056    2.248765
      6          9           0        2.875395   -1.083934    0.280037
      7          9           0        1.841236    1.552938   -0.266966
      8          9           0        0.781011    1.547838    1.693298
      9          6           0       -1.119682    0.941777   -0.603139
     10          6           0       -2.354520    0.202356   -1.272935
     11          9           0       -1.937642   -0.612789   -2.321909
     12          9           0       -3.291624    1.103141   -1.777433
     13          9           0       -3.002446   -0.617911   -0.353181
     14          9           0       -1.592404    1.780170    0.410220
     15          9           0       -0.532179    1.785270   -1.550043
     16          9           0       -0.589985   -0.848831    0.937643
     17          9           0        0.463625   -0.843763   -1.010389
 ---------------------------------------------------------------------
                    Distance matrix (angstroms):
                    1          2          3          4          5
     1  C    0.000000
     2  C    1.582532   0.000000
     3  C    2.684227   1.587512   0.000000
     4  F    3.900125   2.474336   1.394308   0.000000
     5  F    3.085649   2.457622   1.392334   2.252585   0.000000
     6  F    3.085649   2.457622   1.392334   2.252585   2.238241
     7  F    2.423435   1.397593   2.429677   2.851586   3.648284
     8  F    2.423435   1.397593   2.429677   2.851586   2.884751
     9  C    1.582532   2.695808   4.122102   5.169869   4.565539
    10  C    2.684227   4.122102   5.368162   6.555550   5.605200
    11  F    3.085649   4.565539   5.605200   6.859198   5.930190
    12  F    3.900125   5.169869   6.555550   7.643426   6.859198
    13  F    3.085649   4.565539   5.605200   6.859198   5.491578
    14  F    2.423435   3.041968   4.521108   5.369366   4.815920
    15  F    2.423435   3.041968   4.521108   5.369366   5.308604
    16  F    1.395625   2.420922   3.017488   4.298917   2.745818
    17  F    1.395625   2.420922   3.017488   4.298917   3.535049
                    6          7          8          9         10
     6  F    0.000000
     7  F    2.884751   0.000000
     8  F    3.648284   2.228618   0.000000
     9  C    4.565539   3.041968   3.041968   0.000000
    10  C    5.605200   4.521108   4.521108   1.587512   0.000000
    11  F    5.491578   4.815920   5.308604   2.457622   1.392334
    12  F    6.859198   5.369366   5.369366   2.474336   1.394308
    13  F    5.930190   5.308604   4.815920   2.457622   1.392334
    14  F    5.308604   3.507151   2.708019   1.397593   2.429677
    15  F    4.815920   2.708019   3.507151   1.397593   2.429677
    16  F    3.535049   3.623591   2.862633   2.420922   3.017488
    17  F    2.745818   2.862633   3.623591   2.420922   3.017488
                   11         12         13         14         15
    11  F    0.000000
    12  F    2.252585   0.000000
    13  F    2.238241   2.252585   0.000000
    14  F    3.648284   2.851586   2.884751   0.000000
    15  F    2.884751   2.851586   3.648284   2.228618   0.000000
    16  F    3.535049   4.298917   2.745818   2.862633   3.623591
    17  F    2.745818   4.298917   3.535049   3.623591   2.862633
                   16         17
    16  F    0.000000
    17  F    2.214711   0.000000
 Stoichiometry    C5F12
 Framework group  C2V[C2(C),SGV(C4F2),SGV'(F2),X(F8)]
 Deg. of freedom    14
 Full point group                 C2V     NOp   4
 Largest Abelian subgroup         C2V     NOp   4
 Largest concise Abelian subgroup C2V     NOp   4
                         Standard orientation:                         
 ---------------------------------------------------------------------
 Center     Atomic      Atomic             Coordinates (Angstroms)
 Number     Number       Type             X           Y           Z
 ---------------------------------------------------------------------
      1          6           0        0.000000    0.000000    0.273928
      2          6           0        0.000000   -1.347904   -0.555266
      3          6           0        0.000000   -2.684081    0.301954
      4          9           0        0.000000   -3.821713   -0.504203
      5          9           0        1.119121   -2.745789    1.128002
      6          9           0       -1.119121   -2.745789    1.128002
      7          9           0       -1.114309   -1.354010   -1.398798
      8          9           0        1.114309   -1.354010   -1.398798
      9          6           0        0.000000    1.347904   -0.555266
     10          6           0        0.000000    2.684081    0.301954
     11          9           0       -1.119121    2.745789    1.128002
     12          9           0        0.000000    3.821713   -0.504203
     13          9           0        1.119121    2.745789    1.128002
     14          9           0        1.114309    1.354010   -1.398798
     15          9           0       -1.114309    1.354010   -1.398798
     16          9           0        1.107356   -0.000000    1.123360
     17          9           0       -1.107356    0.000000    1.123360
 ---------------------------------------------------------------------
 Rotational constants (GHZ):           0.9195188           0.2938482           0.2812009
 Standard basis: 6-31G(d,p) (6D, 7F)
 There are    82 symmetry adapted cartesian basis functions of A1  symmetry.
 There are    47 symmetry adapted cartesian basis functions of A2  symmetry.
 There are    56 symmetry adapted cartesian basis functions of B1  symmetry.
 There are    70 symmetry adapted cartesian basis functions of B2  symmetry.
 There are    82 symmetry adapted basis functions of A1  symmetry.
 There are    47 symmetry adapted basis functions of A2  symmetry.
 There are    56 symmetry adapted basis functions of B1  symmetry.
 There are    70 symmetry adapted basis functions of B2  symmetry.
   255 basis functions,   476 primitive gaussians,   255 cartesian basis functions
    69 alpha electrons       69 beta electrons
       nuclear repulsion energy      1570.0394233282 Hartrees.
 NAtoms=   17 NActive=   17 NUniq=    7 SFac= 4.00D+00 NAtFMM=   60 NAOKFM=F Big=F
 Integral buffers will be    131072 words long.
 Raffenetti 2 integral format.
 Two-electron integral symmetry is turned on.
 One-electron integrals computed using PRISM.
 NBasis=   255 RedAO= T EigKep=  1.78D-03  NBF=    82    47    56    70
 NBsUse=   255 1.00D-06 EigRej= -1.00D+00 NBFU=    82    47    56    70
 ExpMin= 1.69D-01 ExpMax= 7.00D+03 ExpMxC= 1.05D+03 IAcc=3 IRadAn=         5 AccDes= 0.00D+00
 Harris functional with IExCor=  402 and IRadAn=       5 diagonalized for initial guess.
 HarFok:  IExCor=  402 AccDes= 0.00D+00 IRadAn=         5 IDoV= 1 UseB2=F ITyADJ=14
 ICtDFT=  3500011 ScaDFX=  1.000000  1.000000  1.000000  1.000000
 FoFCou: FMM=F IPFlag=           0 FMFlag=      100000 FMFlg1=           0
         NFxFlg=           0 DoJE=T BraDBF=F KetDBF=T FulRan=T
         wScrn=  0.000000 ICntrl=       500 IOpCl=  0 I1Cent=   200000004 NGrid=           0
         NMat0=    1 NMatS0=      1 NMatT0=    0 NMatD0=    1 NMtDS0=    0 NMtDT0=    0
 Petite list used in FoFCou.
 Initial guess orbital symmetries:
       Occupied  (A1) (B1) (B2) (A2) (A1) (B1) (A1) (B2) (B1) (A2)
                 (B2) (A1) (A1) (B2) (A1) (B2) (A1) (A1) (B2) (A1)
                 (A1) (B2) (B1) (A2) (B2) (A1) (B1) (B1) (A2) (A1)
                 (B2) (A1) (B2) (A1) (B1) (B2) (A1) (A2) (A1) (B2)
                 (B1) (A1) (A2) (B2) (B1) (A1) (B2) (A2) (A1) (B1)
                 (B2) (A1) (B1) (B2) (A2) (B1) (A2) (A1) (B2) (B1)
                 (A2) (A2) (B1) (B1) (A1) (A2) (B2) (A1) (B2)
       Virtual   (B1) (A1) (A2) (B2) (B1) (A1) (A1) (B2) (B2) (A1)
                 (A2) (A1) (B2) (B2) (A1) (B1) (A1) (B2) (A1) (B1)
                 (A1) (B2) (A2) (B2) (B1) (A1) (A2) (A1) (B2) (B1)
                 (A1) (B2) (A1) (B1) (B2) (A1) (A2) (B2) (B1) (A1)
                 (A1) (A2) (B2) (A2) (B1) (A1) (B2) (A1) (B2) (A2)
                 (B1) (B2) (A1) (B1) (B2) (A2) (B1) (B1) (A1) (A2)
                 (B2) (A1) (B1) (A2) (B1) (A1) (A1) (B2) (A1) (B2)
                 (A2) (A1) (B1) (A1) (B2) (A2) (B2) (A2) (B2) (B1)
                 (A2) (A1) (B2) (B1) (A1) (B2) (A2) (A1) (B1) (B2)
                 (A1) (A2) (B1) (B1) (A2) (B1) (A1) (B2) (A2) (A2)
                 (B1) (A1) (A2) (B2) (B2) (A1) (B2) (B1) (A2) (B2)
                 (A1) (B1) (A1) (A2) (B1) (A2) (B1) (B2) (A1) (B1)
                 (A2) (B1) (A2) (A1) (B1) (B2) (A1) (B2) (B2) (A2)
                 (A1) (A1) (B1) (A2) (B1) (B2) (A1) (B2) (A1) (A2)
                 (B1) (A1) (B2) (B1) (A1) (A2) (B2) (B2) (A1) (B2)
                 (A1) (B1) (A1) (A2) (B2) (A1) (B2) (A1) (B2) (A1)
                 (B1) (A2) (A1) (B2) (B1) (B2) (A1) (A2) (B1) (A1)
                 (A2) (B1) (A1) (B2) (A1) (B1) (B2) (A1) (B2) (A1)
                 (A2) (B2) (A1) (B1) (B2) (A1)
 The electronic state of the initial guess is 1-A1.
 Requested convergence on RMS density matrix=1.00D-08 within 128 cycles.
 Requested convergence on MAX density matrix=1.00D-06.
 Requested convergence on             energy=1.00D-06.
 No special actions if energy rises.
 Integral accuracy reduced to 1.0D-05 until final iterations.
 Initial convergence to 1.0D-05 achieved.  Increase integral accuracy.
 SCF Done:  E(RB3LYP) =  -1388.56068954     A.U. after   12 cycles
            NFock= 12  Conv=0.66D-08     -V/T= 2.0079

 **********************************************************************

            Population analysis using the SCF Density.

 **********************************************************************

 Orbital symmetries:
       Occupied  (B2) (A1) (A1) (B1) (B2) (A2) (A1) (B1) (A1) (B2)
                 (B1) (A2) (B2) (A1) (A1) (B2) (A1) (A1) (B2) (A1)
                 (B2) (A1) (B1) (A2) (B2) (A1) (B1) (B1) (A2) (A1)
                 (B2) (A1) (B2) (A1) (A1) (B2) (B1) (B2) (A2) (A1)
                 (B1) (B2) (A1) (A2) (B1) (A1) (B2) (A2) (A1) (B1)
                 (B2) (A1) (B1) (B2) (A2) (B1) (A2) (A1) (B2) (A1)
                 (B1) (A2) (A2) (B1) (B2) (B1) (A2) (A1) (B2)
       Virtual   (A1) (B1) (A2) (B2) (B1) (A1) (A1) (B2) (B2) (A1)
                 (A2) (B2) (A1) (B2) (A1) (B1) (A1) (B2) (A1) (B1)
                 (A1) (B2) (A2) (B2) (B1) (A1) (A2) (A1) (B2) (A1)
                 (B1) (B2) (A1) (B2) (A1) (B1) (B2) (A2) (B1) (A1)
                 (A2) (A1) (B2) (A2) (B1) (A1) (B2) (B2) (A1) (B2)
                 (A2) (B1) (A1) (B2) (B1) (A2) (B1) (A1) (B1) (A2)
                 (A1) (B2) (A1) (B1) (A2) (A1) (B2) (B1) (B2) (A1)
                 (A2) (A1) (B1) (A1) (B2) (A2) (B2) (A2) (B2) (B1)
                 (A2) (A1) (B2) (B1) (B2) (A1) (A2) (A1) (A1) (B2)
                 (B1) (A2) (B1) (B1) (A1) (A2) (B1) (B2) (A1) (A2)
                 (A2) (B1) (B2) (A2) (B2) (A1) (B2) (B2) (B1) (A1)
                 (A2) (A1) (B1) (A2) (B1) (A1) (A2) (B2) (B1) (B1)
                 (A2) (B1) (A2) (A1) (B1) (B2) (A1) (B2) (B2) (A1)
                 (A2) (A1) (B1) (A2) (A1) (B2) (B1) (B2) (A2) (A1)
                 (B1) (A1) (B2) (B1) (A1) (A2) (B2) (B2) (A1) (B2)
                 (A1) (B1) (A1) (A2) (B2) (A1) (B2) (A1) (B2) (A1)
                 (B1) (A2) (A1) (B2) (B1) (B2) (A1) (A2) (B1) (A1)
                 (B2) (A2) (A1) (B1) (A1) (B2) (B1) (A1) (A1) (B2)
                 (A2) (B2) (A1) (B1) (B2) (A1)
 The electronic state is 1-A1.
 Alpha  occ. eigenvalues --  -24.76416 -24.76416 -24.76322 -24.76322 -24.76246
 Alpha  occ. eigenvalues --  -24.76246 -24.76246 -24.76245 -24.76217 -24.76217
 Alpha  occ. eigenvalues --  -24.76217 -24.76217 -10.49240 -10.49240 -10.44196
 Alpha  occ. eigenvalues --  -10.44196 -10.44059  -1.31864  -1.31594  -1.29964
 Alpha  occ. eigenvalues --   -1.28565  -1.28501  -1.24607  -1.23990  -1.23859
 Alpha  occ. eigenvalues --   -1.23842  -1.23508  -1.23274  -1.23176  -0.84916
 Alpha  occ. eigenvalues --   -0.81581  -0.75916  -0.70237  -0.67614  -0.63390
 Alpha  occ. eigenvalues --   -0.62924  -0.61930  -0.61119  -0.61077  -0.60738
 Alpha  occ. eigenvalues --   -0.59499  -0.58675  -0.58635  -0.57594  -0.56321
 Alpha  occ. eigenvalues --   -0.50099  -0.49733  -0.48950  -0.48942  -0.48383
 Alpha  occ. eigenvalues --   -0.48321  -0.48083  -0.47772  -0.47566  -0.46843
 Alpha  occ. eigenvalues --   -0.45547  -0.45382  -0.44995  -0.44815  -0.44396
 Alpha  occ. eigenvalues --   -0.44175  -0.44106  -0.43641  -0.43469  -0.43212
 Alpha  occ. eigenvalues --   -0.43119  -0.42918  -0.41170  -0.36994
 Alpha virt. eigenvalues --   -0.02713  -0.02285   0.01640   0.05316   0.07976
 Alpha virt. eigenvalues --    0.09893   0.11179   0.11451   0.13319   0.14019
 Alpha virt. eigenvalues --    0.15950   0.16949   0.17918   0.21434   0.21716
 Alpha virt. eigenvalues --    0.22799   0.39396   0.43469   0.44101   0.45667
 Alpha virt. eigenvalues --    0.46401   0.46472   0.48367   0.50309   0.52985
 Alpha virt. eigenvalues --    0.54561   0.59933   0.61435   0.63484   0.67414
 Alpha virt. eigenvalues --    0.67968   0.87093   0.87296   0.89844   0.91223
 Alpha virt. eigenvalues --    0.91270   0.95810   0.96440   1.01053   1.02373
 Alpha virt. eigenvalues --    1.02485   1.04525   1.06349   1.06800   1.07256
 Alpha virt. eigenvalues --    1.07855   1.14426   1.15577   1.15647   1.16690
 Alpha virt. eigenvalues --    1.17684   1.18245   1.21425   1.24371   1.24705
 Alpha virt. eigenvalues --    1.27260   1.28231   1.28694   1.29471   1.30796
 Alpha virt. eigenvalues --    1.31334   1.31692   1.33123   1.33230   1.33673
 Alpha virt. eigenvalues --    1.33776   1.34180   1.34247   1.34660   1.35640
 Alpha virt. eigenvalues --    1.36378   1.37329   1.38634   1.39412   1.41383
 Alpha virt. eigenvalues --    1.42709   1.44577   1.46058   1.47140   1.48301
 Alpha virt. eigenvalues --    1.50389   1.55265   1.55571   1.59207   1.59807
 Alpha virt. eigenvalues --    1.60559   1.63151   1.64290   1.66441   1.66813
 Alpha virt. eigenvalues --    1.67023   1.70505   1.71537   1.75566   1.76100
 Alpha virt. eigenvalues --    1.76389   1.77614   1.78098   1.78506   1.78944
 Alpha virt. eigenvalues --    1.80205   1.80207   1.81038   1.81341   1.83476
 Alpha virt. eigenvalues --    1.87427   1.87665   1.89684   1.90863   1.91052
 Alpha virt. eigenvalues --    1.91138   1.93009   1.93818   1.94564   1.95079
 Alpha virt. eigenvalues --    1.95968   1.96409   1.96540   1.96958   1.97282
 Alpha virt. eigenvalues --    1.97463   1.98221   2.00855   2.02631   2.02977
 Alpha virt. eigenvalues --    2.04199   2.10540   2.13095   2.19204   2.19437
 Alpha virt. eigenvalues --    2.20211   2.22003   2.22812   2.25511   2.25791
 Alpha virt. eigenvalues --    2.26063   2.26812   2.28237   2.29096   2.29997
 Alpha virt. eigenvalues --    2.33274   2.36870   2.40062   2.42621   2.56452
 Alpha virt. eigenvalues --    2.58982   2.63739   2.64402   2.68523   2.70700
 Alpha virt. eigenvalues --    2.70868   2.72887   2.74191   2.76278   2.77916
 Alpha virt. eigenvalues --    2.78232   2.81073   2.92302   2.94430   2.95139
 Alpha virt. eigenvalues --    2.98247   3.01278   3.03092   3.04031   3.09241
 Alpha virt. eigenvalues --    3.15166   3.15537   3.16837   3.19001   3.99929
 Alpha virt. eigenvalues --    4.19544   4.21545   4.21739   4.22677   4.37930
 Alpha virt. eigenvalues --    4.54910   4.57755   4.60242   4.78960   4.80684
 Alpha virt. eigenvalues --    4.92199   5.01205   5.02913   5.19490   6.17848
 Alpha virt. eigenvalues --    6.31318
          Condensed to atoms (all electrons):
               1          2          3          4          5          6
     1  C    4.873449   0.150905  -0.033758   0.001429   0.002531   0.002531
     2  C    0.150905   4.816296   0.234134  -0.020627  -0.029065  -0.029065
     3  C   -0.033758   0.234134   4.225370   0.273738   0.257699   0.257699
     4  F    0.001429  -0.020627   0.273738   9.062366  -0.030998  -0.030998
     5  F    0.002531  -0.029065   0.257699  -0.030998   9.086709  -0.031813
     6  F    0.002531  -0.029065   0.257699  -0.030998  -0.031813   9.086709
     7  F   -0.023715   0.217984  -0.014054  -0.000307   0.000213  -0.000107
     8  F   -0.023715   0.217984  -0.014054  -0.000307  -0.000107   0.000213
     9  C    0.150905  -0.025428   0.002635  -0.000010   0.000019   0.000019
    10  C   -0.033758   0.002635  -0.000012   0.000000  -0.000000  -0.000000
    11  F    0.002531   0.000019  -0.000000  -0.000000  -0.000000   0.000000
    12  F    0.001429  -0.000010   0.000000  -0.000000  -0.000000  -0.000000
    13  F    0.002531   0.000019  -0.000000  -0.000000   0.000000  -0.000000
    14  F   -0.023715   0.001626   0.000029   0.000000  -0.000000   0.000000
    15  F   -0.023715   0.001626   0.000029   0.000000   0.000000  -0.000000
    16  F    0.217867  -0.022167   0.001812   0.000000   0.000693  -0.000124
    17  F    0.217867  -0.022167   0.001812   0.000000  -0.000124   0.000693
               7          8          9         10         11         12
     1  C   -0.023715  -0.023715   0.150905  -0.033758   0.002531   0.001429
     2  C    0.217984   0.217984  -0.025428   0.002635   0.000019  -0.000010
     3  C   -0.014054  -0.014054   0.002635  -0.000012  -0.000000   0.000000
     4  F   -0.000307  -0.000307  -0.000010   0.000000  -0.000000  -0.000000
     5  F    0.000213  -0.000107   0.000019  -0.000000  -0.000000  -0.000000
     6  F   -0.000107   0.000213   0.000019  -0.000000   0.000000  -0.000000
     7  F    9.120106  -0.031751   0.001626   0.000029  -0.000000   0.000000
     8  F   -0.031751   9.120106   0.001626   0.000029   0.000000   0.000000
     9  C    0.001626   0.001626   4.816296   0.234134  -0.029065  -0.020627
    10  C    0.000029   0.000029   0.234134   4.225370   0.257699   0.273738
    11  F   -0.000000   0.000000  -0.029065   0.257699   9.086709  -0.030998
    12  F    0.000000   0.000000  -0.020627   0.273738  -0.030998   9.062366
    13  F    0.000000  -0.000000  -0.029065   0.257699  -0.031813  -0.030998
    14  F   -0.000131   0.000722   0.217984  -0.014054   0.000213  -0.000307
    15  F    0.000722  -0.000131   0.217984  -0.014054  -0.000107  -0.000307
    16  F    0.000236  -0.000006  -0.022167   0.001812  -0.000124   0.000000
    17  F   -0.000006   0.000236  -0.022167   0.001812   0.000693   0.000000
              13         14         15         16         17
     1  C    0.002531  -0.023715  -0.023715   0.217867   0.217867
     2  C    0.000019   0.001626   0.001626  -0.022167  -0.022167
     3  C   -0.000000   0.000029   0.000029   0.001812   0.001812
     4  F   -0.000000   0.000000   0.000000   0.000000   0.000000
     5  F    0.000000  -0.000000   0.000000   0.000693  -0.000124
     6  F   -0.000000   0.000000  -0.000000  -0.000124   0.000693
     7  F    0.000000  -0.000131   0.000722   0.000236  -0.000006
     8  F   -0.000000   0.000722  -0.000131  -0.000006   0.000236
     9  C   -0.029065   0.217984   0.217984  -0.022167  -0.022167
    10  C    0.257699  -0.014054  -0.014054   0.001812   0.001812
    11  F   -0.031813   0.000213  -0.000107  -0.000124   0.000693
    12  F   -0.030998  -0.000307  -0.000307   0.000000   0.000000
    13  F    9.086709  -0.000107   0.000213   0.000693  -0.000124
    14  F   -0.000107   9.120106  -0.031751  -0.000006   0.000236
    15  F    0.000213  -0.031751   9.120106   0.000236  -0.000006
    16  F    0.000693  -0.000006   0.000236   9.128231  -0.033054
    17  F   -0.000124   0.000236  -0.000006  -0.033054   9.128231
 Mulliken charges:
               1
     1  C    0.538399
     2  C    0.505299
     3  C    0.806920
     4  F   -0.254286
     5  F   -0.255758
     6  F   -0.255758
     7  F   -0.270844
     8  F   -0.270844
     9  C    0.505299
    10  C    0.806920
    11  F   -0.255758
    12  F   -0.254286
    13  F   -0.255758
    14  F   -0.270844
    15  F   -0.270844
    16  F   -0.273930
    17  F   -0.273930
 Sum of Mulliken charges =  -0.00000
 Mulliken charges with hydrogens summed into heavy atoms:
               1
     1  C    0.538399
     2  C    0.505299
     3  C    0.806920
     4  F   -0.254286
     5  F   -0.255758
     6  F   -0.255758
     7  F   -0.270844
     8  F   -0.270844
     9  C    0.505299
    10  C    0.806920
    11  F   -0.255758
    12  F   -0.254286
    13  F   -0.255758
    14  F   -0.270844
    15  F   -0.270844
    16  F   -0.273930
    17  F   -0.273930
 Electronic spatial extent (au):  <R**2>=           3658.7549
 Charge=              0.0000 electrons
 Dipole moment (field-independent basis, Debye):
    X=              0.0000    Y=              0.0000    Z=             -0.0984  Tot=              0.0984
 Quadrupole moment (field-independent basis, Debye-Ang):
   XX=            -88.1801   YY=            -88.7388   ZZ=            -88.9187
   XY=              0.0000   XZ=             -0.0000   YZ=              0.0000
 Traceless Quadrupole moment (field-independent basis, Debye-Ang):
   XX=              0.4324   YY=             -0.1263   ZZ=             -0.3062
   XY=              0.0000   XZ=             -0.0000   YZ=              0.0000
 Octapole moment (field-independent basis, Debye-Ang**2):
  XXX=             -0.0000  YYY=              0.0000  ZZZ=              2.7097  XYY=              0.0000
  XXY=             -0.0000  XXZ=              0.0398  XZZ=              0.0000  YZZ=              0.0000
  YYZ=              0.2258  XYZ=              0.0000
 Hexadecapole moment (field-independent basis, Debye-Ang**3):
 XXXX=           -398.2794 YYYY=          -2611.6907 ZZZZ=           -531.7110 XXXY=             -0.0000
 XXXZ=             -0.0000 YYYX=             -0.0000 YYYZ=              0.0000 ZZZX=             -0.0000
 ZZZY=              0.0000 XXYY=           -501.1592 XXZZ=           -157.8860 YYZZ=           -522.3726
 XXYZ=             -0.0000 YYXZ=              0.0000 ZZXY=              0.0000
 N-N= 1.570039423328D+03 E-N=-6.434583182036D+03  KE= 1.377675509858D+03
 Symmetry A1   KE= 4.886931029328D+02
 Symmetry A2   KE= 2.155897694098D+02
 Symmetry B1   KE= 3.028924658550D+02
 Symmetry B2   KE= 3.705001716600D+02
 Calling FoFJK, ICntrl=      2127 FMM=F ISym2X=1 I1Cent= 0 IOpClX= 0 NMat=1 NMatS=1 NMatT=0.
 ***** Axes restored to original set *****
 -------------------------------------------------------------------
 Center     Atomic                   Forces (Hartrees/Bohr)
 Number     Number              X              Y              Z
 -------------------------------------------------------------------
      1        6          -0.002831429   -0.037927029   -0.001630075
      2        6           0.002264490    0.036549097    0.001319856
      3        6           0.024501186   -0.027856385    0.013179200
      4        9          -0.040960228   -0.019204777   -0.022203648
      5        9           0.013740375    0.030473166   -0.030732103
      6        9          -0.018265017    0.030319213    0.028443072
      7        9          -0.011774876   -0.027752658    0.020993124
      8        9           0.011184414   -0.027642219   -0.021456599
      9        6           0.003185896    0.036458901    0.001817972
     10        6          -0.028274722   -0.022690184   -0.015351653
     11        9          -0.009267693    0.029438470    0.033307060
     12        9           0.037519256   -0.026887085    0.020222655
     13        9           0.022737699    0.029592423   -0.025868116
     14        9           0.007665110   -0.027297716   -0.023359147
     15        9          -0.015294180   -0.027408155    0.019090576
     16        9           0.011382553    0.025962914   -0.016354048
     17        9          -0.007512834    0.025872024    0.018581874
 -------------------------------------------------------------------
 Cartesian Forces:  Max     0.040960228 RMS     0.023473634

 GradGradGradGradGradGradGradGradGradGradGradGradGradGradGradGradGradGrad
 Berny optimization.
 FormGI is forming the generalized inverse of G from B-inverse, IUseBI=4.
 Internal  Forces:  Max     0.049903753 RMS     0.017032123
 Search for a local minimum.
 Step number   1 out of a maximum of   92
 All quantities printed in internal units (Hartrees-Bohrs-Radians)
 Mixed Optimization -- RFO/linear search
 Second derivative matrix not updated -- first step.
 ITU=  0
     Eigenvalues ---    0.00230   0.00230   0.00230   0.00230   0.04597
     Eigenvalues ---    0.04781   0.04781   0.06753   0.06795   0.06795
     Eigenvalues ---    0.08182   0.08182   0.08441   0.08441   0.13697
     Eigenvalues ---    0.13697   0.14024   0.19585   0.19585   0.19808
     Eigenvalues ---    0.24693   0.24693   0.25000   0.25000   0.25000
     Eigenvalues ---    0.25000   0.25000   0.25000   0.25000   0.25000
     Eigenvalues ---    0.25000   0.25060   0.25060   0.46022   0.46022
     Eigenvalues ---    0.46022   0.46022   0.46353   0.46353   0.46577
     Eigenvalues ---    0.46577   0.46915   0.46915   0.46915   0.46915
 RFO step:  Lambda=-5.27972722D-02 EMin= 2.30000000D-03
 Linear search not attempted -- first point.
 Maximum step size (   0.300) exceeded in Quadratic search.
    -- Step size scaled by   0.876
 Iteration  1 RMS(Cart)=  0.06866936 RMS(Int)=  0.00048974
 Iteration  2 RMS(Cart)=  0.00049096 RMS(Int)=  0.00013585
 Iteration  3 RMS(Cart)=  0.00000035 RMS(Int)=  0.00013585
 ClnCor:  largest displacement from symmetrization is 1.75D-08 for atom     6.
 Variable       Old X    -DE/DX   Delta X   Delta X   Delta X     New X
                                 (Linear)    (Quad)   (Total)
    R1        2.99055  -0.02192   0.00000  -0.06326  -0.06326   2.92730
    R2        2.99055  -0.02192   0.00000  -0.06326  -0.06326   2.92730
    R3        2.63735  -0.03159   0.00000  -0.05357  -0.05357   2.58378
    R4        2.63735  -0.03159   0.00000  -0.05357  -0.05357   2.58378
    R5        2.99996  -0.02727   0.00000  -0.07965  -0.07965   2.92031
    R6        2.64107  -0.03591   0.00000  -0.06128  -0.06128   2.57979
    R7        2.64107  -0.03591   0.00000  -0.06128  -0.06128   2.57979
    R8        2.63486  -0.04990   0.00000  -0.08426  -0.08426   2.55060
    R9        2.63113  -0.04510   0.00000  -0.07566  -0.07566   2.55547
   R10        2.63113  -0.04510   0.00000  -0.07566  -0.07566   2.55547
   R11        2.99996  -0.02727   0.00000  -0.07965  -0.07965   2.92031
   R12        2.64107  -0.03591   0.00000  -0.06128  -0.06128   2.57979
   R13        2.64107  -0.03591   0.00000  -0.06128  -0.06128   2.57979
   R14        2.63113  -0.04510   0.00000  -0.07566  -0.07566   2.55547
   R15        2.63486  -0.04990   0.00000  -0.08426  -0.08426   2.55060
   R16        2.63113  -0.04510   0.00000  -0.07566  -0.07566   2.55547
    A1        2.03859  -0.00274   0.00000  -0.01838  -0.01860   2.01999
    A2        1.89537  -0.00044   0.00000  -0.00370  -0.00386   1.89152
    A3        1.89537  -0.00044   0.00000  -0.00370  -0.00386   1.89152
    A4        1.89537  -0.00044   0.00000  -0.00370  -0.00386   1.89152
    A5        1.89537  -0.00044   0.00000  -0.00370  -0.00386   1.89152
    A6        1.83291   0.00540   0.00000   0.03978   0.03981   1.87272
    A7        2.01968  -0.00151   0.00000  -0.01339  -0.01352   2.00616
    A8        1.89649   0.00110   0.00000   0.00411   0.00389   1.90038
    A9        1.89649   0.00110   0.00000   0.00411   0.00389   1.90038
   A10        1.89888  -0.00247   0.00000  -0.01231  -0.01232   1.88656
   A11        1.89888  -0.00247   0.00000  -0.01231  -0.01232   1.88656
   A12        1.84564   0.00486   0.00000   0.03447   0.03441   1.88004
   A13        1.95469  -0.01090   0.00000  -0.03538  -0.03575   1.91894
   A14        1.93656  -0.00470   0.00000  -0.01168  -0.01185   1.92471
   A15        1.93656  -0.00470   0.00000  -0.01168  -0.01185   1.92471
   A16        1.88269   0.00707   0.00000   0.01686   0.01650   1.89919
   A17        1.88269   0.00707   0.00000   0.01686   0.01650   1.89919
   A18        1.86722   0.00756   0.00000   0.02934   0.02937   1.89659
   A19        2.01968  -0.00151   0.00000  -0.01339  -0.01352   2.00616
   A20        1.89649   0.00110   0.00000   0.00411   0.00389   1.90038
   A21        1.89649   0.00110   0.00000   0.00411   0.00389   1.90038
   A22        1.89888  -0.00247   0.00000  -0.01231  -0.01232   1.88656
   A23        1.89888  -0.00247   0.00000  -0.01231  -0.01232   1.88656
   A24        1.84564   0.00486   0.00000   0.03447   0.03441   1.88004
   A25        1.93656  -0.00470   0.00000  -0.01168  -0.01185   1.92471
   A26        1.95469  -0.01090   0.00000  -0.03538  -0.03575   1.91894
   A27        1.93656  -0.00470   0.00000  -0.01168  -0.01185   1.92471
   A28        1.88269   0.00707   0.00000   0.01686   0.01650   1.89919
   A29        1.86722   0.00756   0.00000   0.02934   0.02937   1.89659
   A30        1.88269   0.00707   0.00000   0.01686   0.01650   1.89919
    D1        3.14159   0.00000   0.00000   0.00000   0.00000   3.14159
    D2       -1.00014  -0.00345   0.00000  -0.02249  -0.02254  -1.02268
    D3        1.00014   0.00345   0.00000   0.02249   0.02254   1.02268
    D4        0.99207   0.00295   0.00000   0.02145   0.02142   1.01349
    D5        3.13352  -0.00050   0.00000  -0.00104  -0.00112   3.13240
    D6       -1.14939   0.00640   0.00000   0.04394   0.04396  -1.10542
    D7       -0.99207  -0.00295   0.00000  -0.02145  -0.02142  -1.01349
    D8        1.14939  -0.00640   0.00000  -0.04394  -0.04396   1.10542
    D9       -3.13352   0.00050   0.00000   0.00104   0.00112  -3.13240
   D10        3.14159   0.00000   0.00000   0.00000   0.00000   3.14159
   D11       -1.00014  -0.00345   0.00000  -0.02249  -0.02254  -1.02268
   D12        1.00014   0.00345   0.00000   0.02249   0.02254   1.02268
   D13       -0.99207  -0.00295   0.00000  -0.02145  -0.02142  -1.01349
   D14        1.14939  -0.00640   0.00000  -0.04394  -0.04396   1.10542
   D15       -3.13352   0.00050   0.00000   0.00104   0.00112  -3.13240
   D16        0.99207   0.00295   0.00000   0.02145   0.02142   1.01349
   D17        3.13352  -0.00050   0.00000  -0.00104  -0.00112   3.13240
   D18       -1.14939   0.00640   0.00000   0.04394   0.04396  -1.10542
   D19        3.14159  -0.00000   0.00000  -0.00000   0.00000   3.14159
   D20       -1.03666  -0.00169   0.00000  -0.01079  -0.01069  -1.04735
   D21        1.03666   0.00169   0.00000   0.01079   0.01069   1.04735
   D22        1.00140   0.00156   0.00000   0.01384   0.01377   1.01518
   D23        3.10634  -0.00013   0.00000   0.00305   0.00308   3.10942
   D24       -1.10353   0.00326   0.00000   0.02463   0.02446  -1.07907
   D25       -1.00140  -0.00156   0.00000  -0.01384  -0.01377  -1.01518
   D26        1.10353  -0.00326   0.00000  -0.02463  -0.02446   1.07907
   D27       -3.10634   0.00013   0.00000  -0.00305  -0.00308  -3.10942
   D28       -1.03666  -0.00169   0.00000  -0.01079  -0.01069  -1.04735
   D29        3.14159   0.00000   0.00000   0.00000   0.00000   3.14159
   D30        1.03666   0.00169   0.00000   0.01079   0.01069   1.04735
   D31        3.10634  -0.00013   0.00000   0.00305   0.00308   3.10942
   D32        1.00140   0.00156   0.00000   0.01384   0.01377   1.01518
   D33       -1.10353   0.00326   0.00000   0.02463   0.02446  -1.07907
   D34        1.10353  -0.00326   0.00000  -0.02463  -0.02446   1.07907
   D35       -1.00140  -0.00156   0.00000  -0.01384  -0.01377  -1.01518
   D36       -3.10634   0.00013   0.00000  -0.00305  -0.00308  -3.10942
         Item               Value     Threshold  Converged?
 Maximum Force            0.049904     0.000450     NO 
 RMS     Force            0.017032     0.000300     NO 
 Maximum Displacement     0.227885     0.001800     NO 
 RMS     Displacement     0.068620     0.001200     NO 
 Predicted change in Energy=-2.876094D-02
 GradGradGradGradGradGradGradGradGradGradGradGradGradGradGradGradGradGrad

                          Input orientation:                          
 ---------------------------------------------------------------------
 Center     Atomic      Atomic             Coordinates (Angstroms)
 Number     Number       Type             X           Y           Z
 ---------------------------------------------------------------------
      1          6           0       -0.000705   -0.009448   -0.000406
      2          6           0        1.210277    0.698860    0.656407
      3          6           0        2.284694   -0.249267    1.235048
      4          9           0        3.288429    0.470108    1.779798
      5          9           0        1.746245   -1.040034    2.190798
      6          9           0        2.791555   -1.035006    0.258111
      7          9           0        1.808807    1.501996   -0.271175
      8          9           0        0.759849    1.496950    1.668256
      9          6           0       -1.089127    0.923947   -0.586660
     10          6           0       -2.288492    0.198399   -1.237234
     11          9           0       -1.867111   -0.578972   -2.260382
     12          9           0       -3.171033    1.102421   -1.712212
     13          9           0       -2.912422   -0.584000   -0.327694
     14          9           0       -1.567911    1.724813    0.409860
     15          9           0       -0.518953    1.729859   -1.529570
     16          9           0       -0.584866   -0.819395    0.933504
     17          9           0        0.462899   -0.814355   -1.003721
 ---------------------------------------------------------------------
                    Distance matrix (angstroms):
                    1          2          3          4          5
     1  C    0.000000
     2  C    1.549059   0.000000
     3  C    2.609005   1.545361   0.000000
     4  F    3.770611   2.373405   1.349717   0.000000
     5  F    2.985853   2.380204   1.352294   2.197222   0.000000
     6  F    2.985853   2.380204   1.352294   2.197222   2.197267
     7  F    2.373207   1.365164   2.358409   2.731403   3.539370
     8  F    2.373207   1.365164   2.358409   2.731403   2.771699
     9  C    1.549059   2.623574   4.009703   4.996908   4.428412
    10  C    2.609005   4.009703   5.217912   6.346523   5.437299
    11  F    2.985853   4.428412   5.437299   6.633492   5.751689
    12  F    3.770611   4.996908   6.346523   7.370115   6.633492
    13  F    2.985853   4.428412   5.437299   6.633492   5.315444
    14  F    2.373207   2.971816   4.406868   5.199524   4.669020
    15  F    2.373207   2.971816   4.406868   5.199524   5.161838
    16  F    1.367276   2.367365   2.941147   4.169106   2.657734
    17  F    1.367276   2.367365   2.941147   4.169106   3.450053
                    6          7          8          9         10
     6  F    0.000000
     7  F    2.771699   0.000000
     8  F    3.539370   2.204933   0.000000
     9  C    4.428412   2.971816   2.971816   0.000000
    10  C    5.437299   4.406868   4.406868   1.545361   0.000000
    11  F    5.315444   4.669020   5.161838   2.380204   1.352294
    12  F    6.633492   5.199524   5.199524   2.373405   1.349717
    13  F    5.751689   5.161838   4.669020   2.380204   1.352294
    14  F    5.161838   3.451909   2.655927   1.365164   2.358409
    15  F    4.669020   2.655927   3.451909   1.365164   2.358409
    16  F    3.450053   3.545387   2.777332   2.367365   2.941147
    17  F    2.657734   2.777332   3.545387   2.367365   2.941147
                   11         12         13         14         15
    11  F    0.000000
    12  F    2.197222   0.000000
    13  F    2.197267   2.197222   0.000000
    14  F    3.539370   2.731403   2.771699   0.000000
    15  F    2.771699   2.731403   3.539370   2.204933   0.000000
    16  F    3.450053   4.169106   2.657734   2.777332   3.545387
    17  F    2.657734   4.169106   3.450053   3.545387   2.777332
                   16         17
    16  F    0.000000
    17  F    2.202425   0.000000
 Stoichiometry    C5F12
 Framework group  C2V[C2(C),SGV(C4F2),SGV'(F2),X(F8)]
 Deg. of freedom    14
 Full point group                 C2V     NOp   4
 Largest Abelian subgroup         C2V     NOp   4
 Largest concise Abelian subgroup C2V     NOp   4
                         Standard orientation:                         
 ---------------------------------------------------------------------
 Center     Atomic      Atomic             Coordinates (Angstroms)
 Number     Number       Type             X           Y           Z
 ---------------------------------------------------------------------
      1          6           0       -0.000000   -0.000000    0.284151
      2          6           0        0.000000   -1.311787   -0.539740
      3          6           0        0.000000   -2.608956    0.300197
      4          9           0        0.000000   -3.685058   -0.514507
      5          9           0        1.098633   -2.657722    1.087170
      6          9           0       -1.098633   -2.657722    1.087170
      7          9           0       -1.102466   -1.327963   -1.344711
      8          9           0        1.102466   -1.327963   -1.344711
      9          6           0        0.000000    1.311787   -0.539740
     10          6           0        0.000000    2.608956    0.300197
     11          9           0       -1.098633    2.657722    1.087170
     12          9           0        0.000000    3.685058   -0.514507
     13          9           0        1.098633    2.657722    1.087170
     14          9           0        1.102466    1.327963   -1.344711
     15          9           0       -1.102466    1.327963   -1.344711
     16          9           0        1.101212   -0.000000    1.094569
     17          9           0       -1.101212    0.000000    1.094569
 ---------------------------------------------------------------------
 Rotational constants (GHZ):           0.9661111           0.3116542           0.3000394
 Standard basis: 6-31G(d,p) (6D, 7F)
 There are    82 symmetry adapted cartesian basis functions of A1  symmetry.
 There are    47 symmetry adapted cartesian basis functions of A2  symmetry.
 There are    56 symmetry adapted cartesian basis functions of B1  symmetry.
 There are    70 symmetry adapted cartesian basis functions of B2  symmetry.
 There are    82 symmetry adapted basis functions of A1  symmetry.
 There are    47 symmetry adapted basis functions of A2  symmetry.
 There are    56 symmetry adapted basis functions of B1  symmetry.
 There are    70 symmetry adapted basis functions of B2  symmetry.
   255 basis functions,   476 primitive gaussians,   255 cartesian basis functions
    69 alpha electrons       69 beta electrons
       nuclear repulsion energy      1614.2573121722 Hartrees.
 NAtoms=   17 NActive=   17 NUniq=    7 SFac= 4.00D+00 NAtFMM=   60 NAOKFM=F Big=F
 Integral buffers will be    131072 words long.
 Raffenetti 2 integral format.
 Two-electron integral symmetry is turned on.
 One-electron integrals computed using PRISM.
 NBasis=   255 RedAO= T EigKep=  1.45D-03  NBF=    82    47    56    70
 NBsUse=   255 1.00D-06 EigRej= -1.00D+00 NBFU=    82    47    56    70
 Initial guess from the checkpoint file:  "neutral_9.chk"
 B after Tr=    -0.000000   -0.000000    0.000000
         Rot=    1.000000   -0.000000   -0.000000    0.000000 Ang=   0.00 deg.
 Initial guess orbital symmetries:
       Occupied  (B2) (A1) (A1) (B1) (B2) (A2) (A1) (B1) (A1) (B2)
                 (B1) (A2) (B2) (A1) (A1) (B2) (A1) (A1) (B2) (A1)
                 (B2) (A1) (B1) (A2) (B2) (A1) (B1) (B1) (A2) (A1)
                 (B2) (A1) (B2) (A1) (A1) (B2) (B1) (B2) (A2) (A1)
                 (B1) (B2) (A1) (A2) (B1) (A1) (B2) (A2) (A1) (B1)
                 (B2) (A1) (B1) (B2) (A2) (B1) (A2) (A1) (B2) (A1)
                 (B1) (A2) (A2) (B1) (B2) (B1) (A2) (A1) (B2)
       Virtual   (A1) (B1) (A2) (B2) (B1) (A1) (A1) (B2) (B2) (A1)
                 (A2) (B2) (A1) (B2) (A1) (B1) (A1) (B2) (A1) (B1)
                 (A1) (B2) (A2) (B2) (B1) (A1) (A2) (A1) (B2) (A1)
                 (B1) (B2) (A1) (B2) (A1) (B1) (B2) (A2) (B1) (A1)
                 (A2) (A1) (B2) (A2) (B1) (A1) (B2) (B2) (A1) (B2)
                 (A2) (B1) (A1) (B2) (B1) (A2) (B1) (A1) (B1) (A2)
                 (A1) (B2) (A1) (B1) (A2) (A1) (B2) (B1) (B2) (A1)
                 (A2) (A1) (B1) (A1) (B2) (A2) (B2) (A2) (B2) (B1)
                 (A2) (A1) (B2) (B1) (B2) (A1) (A2) (A1) (A1) (B2)
                 (B1) (A2) (B1) (B1) (A1) (A2) (B1) (B2) (A1) (A2)
                 (A2) (B1) (B2) (A2) (B2) (A1) (B2) (B2) (B1) (A1)
                 (A2) (A1) (B1) (A2) (B1) (A1) (A2) (B2) (B1) (B1)
                 (A2) (B1) (A2) (A1) (B1) (B2) (A1) (B2) (B2) (A1)
                 (A2) (A1) (B1) (A2) (A1) (B2) (B1) (B2) (A2) (A1)
                 (B1) (A1) (B2) (B1) (A1) (A2) (B2) (B2) (A1) (B2)
                 (A1) (B1) (A1) (A2) (B2) (A1) (B2) (A1) (B2) (A1)
                 (B1) (A2) (A1) (B2) (B1) (B2) (A1) (A2) (B1) (A1)
                 (B2) (A2) (A1) (B1) (A1) (B2) (B1) (A1) (A1) (B2)
                 (A2) (B2) (A1) (B1) (B2) (A1)
 ExpMin= 1.69D-01 ExpMax= 7.00D+03 ExpMxC= 1.05D+03 IAcc=3 IRadAn=         5 AccDes= 0.00D+00
 Harris functional with IExCor=  402 and IRadAn=       5 diagonalized for initial guess.
 HarFok:  IExCor=  402 AccDes= 0.00D+00 IRadAn=         5 IDoV= 1 UseB2=F ITyADJ=14
 ICtDFT=  3500011 ScaDFX=  1.000000  1.000000  1.000000  1.000000
 FoFCou: FMM=F IPFlag=           0 FMFlag=      100000 FMFlg1=           0
         NFxFlg=           0 DoJE=T BraDBF=F KetDBF=T FulRan=T
         wScrn=  0.000000 ICntrl=       500 IOpCl=  0 I1Cent=   200000004 NGrid=           0
         NMat0=    1 NMatS0=      1 NMatT0=    0 NMatD0=    1 NMtDS0=    0 NMtDT0=    0
 Petite list used in FoFCou.
 Requested convergence on RMS density matrix=1.00D-08 within 128 cycles.
 Requested convergence on MAX density matrix=1.00D-06.
 Requested convergence on             energy=1.00D-06.
 No special actions if energy rises.
 Integral accuracy reduced to 1.0D-05 until final iterations.
 Initial convergence to 1.0D-05 achieved.  Increase integral accuracy.
 SCF Done:  E(RB3LYP) =  -1388.58980216     A.U. after   11 cycles
            NFock= 11  Conv=0.47D-08     -V/T= 2.0070
 Calling FoFJK, ICntrl=      2127 FMM=F ISym2X=1 I1Cent= 0 IOpClX= 0 NMat=1 NMatS=1 NMatT=0.
 ***** Axes restored to original set *****
 -------------------------------------------------------------------
 Center     Atomic                   Forces (Hartrees/Bohr)
 Number     Number              X              Y              Z
 -------------------------------------------------------------------
      1        6          -0.001461444   -0.019576068   -0.000841365
      2        6          -0.000087613    0.019870210    0.000004309
      3        6           0.008812028   -0.011991026    0.004734863
      4        9          -0.010595047   -0.005403915   -0.005744480
      5        9           0.005638953    0.007909641   -0.007996234
      6        9          -0.003622712    0.007865091    0.009127775
      7        9          -0.002501618   -0.008503925    0.005114620
      8        9           0.002929640   -0.008477799   -0.004927302
      9        6           0.003031625    0.019564869    0.001690581
     10        6          -0.010461550   -0.010104347   -0.005684506
     11        9          -0.004455212    0.007946584    0.008677723
     12        9           0.009640315   -0.007384742    0.005194833
     13        9           0.004806453    0.007991134   -0.008446287
     14        9           0.001246157   -0.008313004   -0.005837399
     15        9          -0.004185102   -0.008339130    0.004204523
     16        9           0.003062727    0.008484903   -0.004128986
     17        9          -0.001797598    0.008461524    0.004857330
 -------------------------------------------------------------------
 Cartesian Forces:  Max     0.019870210 RMS     0.007996736

 GradGradGradGradGradGradGradGradGradGradGradGradGradGradGradGradGradGrad
 Berny optimization.
 Using GEDIIS/GDIIS optimizer.
 FormGI is forming the generalized inverse of G from B-inverse, IUseBI=4.
 Internal  Forces:  Max     0.013077825 RMS     0.004509351
 Search for a local minimum.
 Step number   2 out of a maximum of   92
 All quantities printed in internal units (Hartrees-Bohrs-Radians)
 Mixed Optimization -- RFO/linear search
 Update second derivatives using D2CorX and points    1    2
 DE= -2.91D-02 DEPred=-2.88D-02 R= 1.01D+00
 TightC=F SS=  1.41D+00  RLast= 3.24D-01 DXNew= 5.0454D-01 9.7271D-01
 Trust test= 1.01D+00 RLast= 3.24D-01 DXMaxT set to 5.05D-01
 ITU=  1  0
 Use linear search instead of GDIIS.
     Eigenvalues ---    0.00230   0.00230   0.00230   0.00230   0.04869
     Eigenvalues ---    0.05002   0.05002   0.06857   0.06884   0.06974
     Eigenvalues ---    0.08588   0.08619   0.08666   0.08666   0.13357
     Eigenvalues ---    0.13374   0.13602   0.19358   0.19358   0.19519
     Eigenvalues ---    0.24613   0.24693   0.24857   0.25000   0.25000
     Eigenvalues ---    0.25000   0.25000   0.25000   0.25000   0.25000
     Eigenvalues ---    0.25022   0.25060   0.28299   0.42121   0.46022
     Eigenvalues ---    0.46022   0.46022   0.46174   0.46353   0.46452
     Eigenvalues ---    0.46577   0.46736   0.46915   0.46915   0.46915
 RFO step:  Lambda=-2.09607606D-03 EMin= 2.30000000D-03
 Quartic linear search produced a step of  0.25214.
 Iteration  1 RMS(Cart)=  0.03129193 RMS(Int)=  0.00041017
 Iteration  2 RMS(Cart)=  0.00052206 RMS(Int)=  0.00006095
 Iteration  3 RMS(Cart)=  0.00000014 RMS(Int)=  0.00006095
 ClnCor:  largest displacement from symmetrization is 8.99D-09 for atom    17.
 Variable       Old X    -DE/DX   Delta X   Delta X   Delta X     New X
                                 (Linear)    (Quad)   (Total)
    R1        2.92730   0.00116  -0.01595   0.02821   0.01226   2.93956
    R2        2.92730   0.00116  -0.01595   0.02821   0.01226   2.93956
    R3        2.58378  -0.00916  -0.01351  -0.00837  -0.02188   2.56190
    R4        2.58378  -0.00916  -0.01351  -0.00837  -0.02188   2.56190
    R5        2.92031   0.00120  -0.02008   0.03446   0.01437   2.93468
    R6        2.57979  -0.00957  -0.01545  -0.00732  -0.02277   2.55701
    R7        2.57979  -0.00957  -0.01545  -0.00732  -0.02277   2.55701
    R8        2.55060  -0.01308  -0.02125  -0.00947  -0.03072   2.51988
    R9        2.55547  -0.01252  -0.01908  -0.01038  -0.02946   2.52601
   R10        2.55547  -0.01252  -0.01908  -0.01038  -0.02946   2.52601
   R11        2.92031   0.00120  -0.02008   0.03446   0.01437   2.93468
   R12        2.57979  -0.00957  -0.01545  -0.00732  -0.02277   2.55701
   R13        2.57979  -0.00957  -0.01545  -0.00732  -0.02277   2.55701
   R14        2.55547  -0.01252  -0.01908  -0.01038  -0.02946   2.52601
   R15        2.55060  -0.01308  -0.02125  -0.00947  -0.03072   2.51988
   R16        2.55547  -0.01252  -0.01908  -0.01038  -0.02946   2.52601
    A1        2.01999  -0.00132  -0.00469  -0.00855  -0.01340   2.00659
    A2        1.89152  -0.00019  -0.00097  -0.00161  -0.00270   1.88881
    A3        1.89152  -0.00019  -0.00097  -0.00161  -0.00270   1.88881
    A4        1.89152  -0.00019  -0.00097  -0.00161  -0.00270   1.88881
    A5        1.89152  -0.00019  -0.00097  -0.00161  -0.00270   1.88881
    A6        1.87272   0.00237   0.01004   0.01716   0.02722   1.89994
    A7        2.00616   0.00274  -0.00341   0.01334   0.00993   2.01610
    A8        1.90038  -0.00048   0.00098  -0.00225  -0.00130   1.89909
    A9        1.90038  -0.00048   0.00098  -0.00225  -0.00130   1.89909
   A10        1.88656  -0.00219  -0.00311  -0.01045  -0.01356   1.87300
   A11        1.88656  -0.00219  -0.00311  -0.01045  -0.01356   1.87300
   A12        1.88004   0.00269   0.00868   0.01234   0.02094   1.90098
   A13        1.91894  -0.00416  -0.00901  -0.01264  -0.02172   1.89722
   A14        1.92471   0.00148  -0.00299   0.01400   0.01087   1.93558
   A15        1.92471   0.00148  -0.00299   0.01400   0.01087   1.93558
   A16        1.89919   0.00055   0.00416  -0.00766  -0.00357   1.89562
   A17        1.89919   0.00055   0.00416  -0.00766  -0.00357   1.89562
   A18        1.89659   0.00013   0.00740  -0.00044   0.00677   1.90336
   A19        2.00616   0.00274  -0.00341   0.01334   0.00993   2.01610
   A20        1.90038  -0.00048   0.00098  -0.00225  -0.00130   1.89909
   A21        1.90038  -0.00048   0.00098  -0.00225  -0.00130   1.89909
   A22        1.88656  -0.00219  -0.00311  -0.01045  -0.01356   1.87300
   A23        1.88656  -0.00219  -0.00311  -0.01045  -0.01356   1.87300
   A24        1.88004   0.00269   0.00868   0.01234   0.02094   1.90098
   A25        1.92471   0.00148  -0.00299   0.01400   0.01087   1.93558
   A26        1.91894  -0.00416  -0.00901  -0.01264  -0.02172   1.89722
   A27        1.92471   0.00148  -0.00299   0.01400   0.01087   1.93558
   A28        1.89919   0.00055   0.00416  -0.00766  -0.00357   1.89562
   A29        1.89659   0.00013   0.00740  -0.00044   0.00677   1.90336
   A30        1.89919   0.00055   0.00416  -0.00766  -0.00357   1.89562
    D1        3.14159   0.00000   0.00000   0.00000   0.00000   3.14159
    D2       -1.02268  -0.00134  -0.00568  -0.00612  -0.01182  -1.03450
    D3        1.02268   0.00134   0.00568   0.00612   0.01182   1.03450
    D4        1.01349   0.00130   0.00540   0.00927   0.01465   1.02814
    D5        3.13240  -0.00004  -0.00028   0.00315   0.00283   3.13523
    D6       -1.10542   0.00264   0.01108   0.01539   0.02647  -1.07895
    D7       -1.01349  -0.00130  -0.00540  -0.00927  -0.01465  -1.02814
    D8        1.10542  -0.00264  -0.01108  -0.01539  -0.02647   1.07895
    D9       -3.13240   0.00004   0.00028  -0.00315  -0.00283  -3.13523
   D10       -3.14159   0.00000   0.00000  -0.00000  -0.00000   3.14159
   D11       -1.02268  -0.00134  -0.00568  -0.00612  -0.01182  -1.03450
   D12        1.02268   0.00134   0.00568   0.00612   0.01182   1.03450
   D13       -1.01349  -0.00130  -0.00540  -0.00927  -0.01465  -1.02814
   D14        1.10542  -0.00264  -0.01108  -0.01539  -0.02647   1.07895
   D15       -3.13240   0.00004   0.00028  -0.00315  -0.00283  -3.13523
   D16        1.01349   0.00130   0.00540   0.00927   0.01465   1.02814
   D17        3.13240  -0.00004  -0.00028   0.00315   0.00283   3.13523
   D18       -1.10542   0.00264   0.01108   0.01539   0.02647  -1.07895
   D19        3.14159   0.00000   0.00000   0.00000   0.00000   3.14159
   D20       -1.04735  -0.00103  -0.00270  -0.00869  -0.01142  -1.05877
   D21        1.04735   0.00103   0.00270   0.00869   0.01142   1.05877
   D22        1.01518   0.00043   0.00347   0.00176   0.00524   1.02042
   D23        3.10942  -0.00060   0.00078  -0.00693  -0.00618   3.10324
   D24       -1.07907   0.00145   0.00617   0.01045   0.01666  -1.06241
   D25       -1.01518  -0.00043  -0.00347  -0.00176  -0.00524  -1.02042
   D26        1.07907  -0.00145  -0.00617  -0.01045  -0.01666   1.06241
   D27       -3.10942   0.00060  -0.00078   0.00693   0.00618  -3.10324
   D28       -1.04735  -0.00103  -0.00270  -0.00869  -0.01142  -1.05877
   D29        3.14159   0.00000   0.00000   0.00000   0.00000   3.14159
   D30        1.04735   0.00103   0.00270   0.00869   0.01142   1.05877
   D31        3.10942  -0.00060   0.00078  -0.00693  -0.00618   3.10324
   D32        1.01518   0.00043   0.00347   0.00176   0.00524   1.02042
   D33       -1.07907   0.00145   0.00617   0.01045   0.01666  -1.06241
   D34        1.07907  -0.00145  -0.00617  -0.01045  -0.01666   1.06241
   D35       -1.01518  -0.00043  -0.00347  -0.00176  -0.00524  -1.02042
   D36       -3.10942   0.00060  -0.00078   0.00693   0.00618  -3.10324
         Item               Value     Threshold  Converged?
 Maximum Force            0.013078     0.000450     NO 
 RMS     Force            0.004509     0.000300     NO 
 Maximum Displacement     0.098154     0.001800     NO 
 RMS     Displacement     0.031168     0.001200     NO 
 Predicted change in Energy=-2.642448D-03
 GradGradGradGradGradGradGradGradGradGradGradGradGradGradGradGradGradGrad

                          Input orientation:                          
 ---------------------------------------------------------------------
 Center     Atomic      Atomic             Coordinates (Angstroms)
 Number     Number       Type             X           Y           Z
 ---------------------------------------------------------------------
      1          6           0       -0.002476   -0.033165   -0.001425
      2          6           0        1.209352    0.687362    0.655876
      3          6           0        2.302823   -0.244905    1.244864
      4          9           0        3.269723    0.508549    1.769780
      5          9           0        1.798186   -1.022979    2.207529
      6          9           0        2.833951   -1.017996    0.292491
      7          9           0        1.805748    1.471976   -0.271274
      8          9           0        0.758157    1.466937    1.665630
      9          6           0       -1.089919    0.912436   -0.587118
     10          6           0       -2.305711    0.206222   -1.246527
     11          9           0       -1.915843   -0.553042   -2.275266
     12          9           0       -3.146900    1.136668   -1.699070
     13          9           0       -2.951608   -0.558024   -0.360227
     14          9           0       -1.569336    1.694773    0.407379
     15          9           0       -0.521745    1.699813   -1.529526
     16          9           0       -0.585734   -0.821397    0.934747
     17          9           0        0.463468   -0.816351   -1.005136
 ---------------------------------------------------------------------
                    Distance matrix (angstroms):
                    1          2          3          4          5
     1  C    0.000000
     2  C    1.555549   0.000000
     3  C    2.629159   1.552968   0.000000
     4  F    3.760041   2.349018   1.333463   0.000000
     5  F    3.016885   2.383195   1.336706   2.168553   0.000000
     6  F    3.016885   2.383195   1.336706   2.168553   2.177201
     7  F    2.368109   1.353113   2.343808   2.690226   3.517004
     8  F    2.368109   1.353113   2.343808   2.690226   2.752270
     9  C    1.555549   2.623422   4.025705   4.972381   4.460610
    10  C    2.629159   4.025705   5.258245   6.346257   5.503036
    11  F    3.016885   4.460610   5.503036   6.661792   5.840403
    12  F    3.760041   4.972381   6.346257   7.321237   6.661792
    13  F    3.016885   4.460610   5.503036   6.661792   5.419418
    14  F    2.368109   2.966097   4.411049   5.165245   4.686888
    15  F    2.368109   2.966097   4.411049   5.165245   5.173128
    16  F    1.355698   2.361452   2.961803   4.163002   2.709923
    17  F    1.355698   2.361452   2.961803   4.163002   3.485023
                    6          7          8          9         10
     6  F    0.000000
     7  F    2.752270   0.000000
     8  F    3.517004   2.202060   0.000000
     9  C    4.460610   2.966097   2.966097   0.000000
    10  C    5.503036   4.411049   4.411049   1.552968   0.000000
    11  F    5.419418   4.686888   5.173128   2.383195   1.336706
    12  F    6.661792   5.165245   5.165245   2.349018   1.333463
    13  F    5.840403   5.173128   4.686888   2.383195   1.336706
    14  F    5.173128   3.449841   2.655623   1.353113   2.343808
    15  F    4.686888   2.655623   3.449841   1.353113   2.343808
    16  F    3.485023   3.526079   2.752582   2.361452   2.961803
    17  F    2.709923   2.752582   3.526079   2.361452   2.961803
                   11         12         13         14         15
    11  F    0.000000
    12  F    2.168553   0.000000
    13  F    2.177201   2.168553   0.000000
    14  F    3.517004   2.690226   2.752270   0.000000
    15  F    2.752270   2.690226   3.517004   2.202060   0.000000
    16  F    3.485023   4.163002   2.709923   2.752582   3.526079
    17  F    2.709923   4.163002   3.485023   3.526079   2.752582
                   16         17
    16  F    0.000000
    17  F    2.205446   0.000000
 Stoichiometry    C5F12
 Framework group  C2V[C2(C),SGV(C4F2),SGV'(F2),X(F8)]
 Deg. of freedom    14
 Full point group                 C2V     NOp   4
 Largest Abelian subgroup         C2V     NOp   4
 Largest concise Abelian subgroup C2V     NOp   4
                         Standard orientation:                         
 ---------------------------------------------------------------------
 Center     Atomic      Atomic             Coordinates (Angstroms)
 Number     Number       Type             X           Y           Z
 ---------------------------------------------------------------------
      1          6           0        0.000000    0.000000    0.308710
      2          6           0        0.000000   -1.311711   -0.527439
      3          6           0        0.000000   -2.629122    0.294835
      4          9           0        0.000000   -3.660618   -0.550232
      5          9           0        1.088601   -2.709709    1.066351
      6          9           0       -1.088601   -2.709709    1.066351
      7          9           0       -1.101030   -1.327811   -1.313816
      8          9           0        1.101030   -1.327811   -1.313816
      9          6           0        0.000000    1.311711   -0.527439
     10          6           0        0.000000    2.629122    0.294835
     11          9           0       -1.088601    2.709709    1.066351
     12          9           0        0.000000    3.660618   -0.550232
     13          9           0        1.088601    2.709709    1.066351
     14          9           0        1.101030    1.327811   -1.313816
     15          9           0       -1.101030    1.327811   -1.313816
     16          9           0        1.102723   -0.000000    1.097329
     17          9           0       -1.102723    0.000000    1.097329
 ---------------------------------------------------------------------
 Rotational constants (GHZ):           0.9848860           0.3087785           0.2984989
 Standard basis: 6-31G(d,p) (6D, 7F)
 There are    82 symmetry adapted cartesian basis functions of A1  symmetry.
 There are    47 symmetry adapted cartesian basis functions of A2  symmetry.
 There are    56 symmetry adapted cartesian basis functions of B1  symmetry.
 There are    70 symmetry adapted cartesian basis functions of B2  symmetry.
 There are    82 symmetry adapted basis functions of A1  symmetry.
 There are    47 symmetry adapted basis functions of A2  symmetry.
 There are    56 symmetry adapted basis functions of B1  symmetry.
 There are    70 symmetry adapted basis functions of B2  symmetry.
   255 basis functions,   476 primitive gaussians,   255 cartesian basis functions
    69 alpha electrons       69 beta electrons
       nuclear repulsion energy      1617.9021314932 Hartrees.
 NAtoms=   17 NActive=   17 NUniq=    7 SFac= 4.00D+00 NAtFMM=   60 NAOKFM=F Big=F
 Integral buffers will be    131072 words long.
 Raffenetti 2 integral format.
 Two-electron integral symmetry is turned on.
 One-electron integrals computed using PRISM.
 NBasis=   255 RedAO= T EigKep=  1.48D-03  NBF=    82    47    56    70
 NBsUse=   255 1.00D-06 EigRej= -1.00D+00 NBFU=    82    47    56    70
 Initial guess from the checkpoint file:  "neutral_9.chk"
 B after Tr=     0.000000    0.000000   -0.000000
         Rot=    1.000000   -0.000000    0.000000   -0.000000 Ang=   0.00 deg.
 Initial guess orbital symmetries:
       Occupied  (B2) (A1) (A1) (B2) (B1) (A2) (A1) (B1) (B2) (A2)
                 (A1) (B1) (B2) (A1) (A1) (B2) (A1) (A1) (B2) (A1)
                 (B2) (A1) (B1) (A2) (B2) (A1) (B1) (B1) (A2) (A1)
                 (B2) (A1) (B2) (A1) (A1) (B2) (B1) (A2) (B2) (A1)
                 (B1) (B2) (A1) (A2) (B1) (A1) (B2) (A2) (A1) (B1)
                 (B2) (A1) (B1) (B2) (A2) (B1) (A2) (A1) (B2) (B1)
                 (A2) (A1) (A2) (B1) (B1) (A2) (B2) (A1) (B2)
       Virtual   (A1) (B1) (A2) (B2) (B1) (A1) (A1) (B2) (B2) (A1)
                 (A2) (A1) (B2) (B2) (A1) (B1) (A1) (B2) (A1) (A1)
                 (B1) (B2) (A2) (B2) (B1) (A1) (A1) (A2) (B2) (B1)
                 (A1) (B2) (A1) (B2) (A1) (B1) (B2) (A2) (B1) (A1)
                 (A2) (A1) (A2) (B2) (A1) (B1) (B2) (A1) (B2) (A2)
                 (B1) (B2) (A1) (B1) (B2) (A2) (B1) (A1) (B1) (A2)
                 (A1) (B2) (A1) (B1) (A2) (B1) (B2) (A1) (B2) (A1)
                 (A2) (A1) (B1) (A1) (B2) (A2) (A2) (B2) (B2) (B1)
                 (A2) (A1) (B2) (B1) (B2) (A1) (A2) (A1) (B1) (A1)
                 (B2) (A2) (B1) (B1) (B1) (A2) (A1) (A2) (B2) (A1)
                 (A2) (B1) (A2) (B2) (B2) (A1) (B2) (B2) (B1) (A2)
                 (A1) (B1) (A1) (B1) (A2) (A1) (A2) (B1) (B2) (B1)
                 (A2) (B1) (A2) (A1) (B2) (B1) (A1) (B2) (B2) (A1)
                 (A2) (B1) (A1) (A1) (A2) (B2) (B1) (B2) (A1) (A2)
                 (B1) (A1) (B2) (B1) (A1) (B2) (A2) (B2) (A1) (A1)
                 (B2) (B1) (A1) (B2) (A1) (A2) (B2) (B1) (A1) (A1)
                 (B2) (A2) (B2) (A1) (B1) (A1) (B2) (A2) (B1) (A1)
                 (B2) (A1) (A2) (A1) (B1) (B2) (A1) (B1) (A1) (B2)
                 (B2) (A2) (A1) (B1) (B2) (A1)
 ExpMin= 1.69D-01 ExpMax= 7.00D+03 ExpMxC= 1.05D+03 IAcc=3 IRadAn=         5 AccDes= 0.00D+00
 Harris functional with IExCor=  402 and IRadAn=       5 diagonalized for initial guess.
 HarFok:  IExCor=  402 AccDes= 0.00D+00 IRadAn=         5 IDoV= 1 UseB2=F ITyADJ=14
 ICtDFT=  3500011 ScaDFX=  1.000000  1.000000  1.000000  1.000000
 FoFCou: FMM=F IPFlag=           0 FMFlag=      100000 FMFlg1=           0
         NFxFlg=           0 DoJE=T BraDBF=F KetDBF=T FulRan=T
         wScrn=  0.000000 ICntrl=       500 IOpCl=  0 I1Cent=   200000004 NGrid=           0
         NMat0=    1 NMatS0=      1 NMatT0=    0 NMatD0=    1 NMtDS0=    0 NMtDT0=    0
 Petite list used in FoFCou.
 Requested convergence on RMS density matrix=1.00D-08 within 128 cycles.
 Requested convergence on MAX density matrix=1.00D-06.
 Requested convergence on             energy=1.00D-06.
 No special actions if energy rises.
 Integral accuracy reduced to 1.0D-05 until final iterations.
 Initial convergence to 1.0D-05 achieved.  Increase integral accuracy.
 SCF Done:  E(RB3LYP) =  -1388.59193624     A.U. after   10 cycles
            NFock= 10  Conv=0.56D-08     -V/T= 2.0068
 Calling FoFJK, ICntrl=      2127 FMM=F ISym2X=1 I1Cent= 0 IOpClX= 0 NMat=1 NMatS=1 NMatT=0.
 ***** Axes restored to original set *****
 -------------------------------------------------------------------
 Center     Atomic                   Forces (Hartrees/Bohr)
 Number     Number              X              Y              Z
 -------------------------------------------------------------------
      1        6          -0.000219950   -0.002946240   -0.000126627
      2        6          -0.000915481    0.003187430   -0.000486853
      3        6          -0.000825406   -0.002449207   -0.000452800
      4        9           0.002421680    0.003656254    0.001319298
      5        9          -0.002144299   -0.001033456    0.000632329
      6        9          -0.000642255   -0.001026230   -0.002144818
      7        9           0.000357705   -0.000620845   -0.000603431
      8        9          -0.000307864   -0.000624047    0.000627149
      9        6           0.001374658    0.002963249    0.000751205
     10        6           0.000450393   -0.002574094    0.000236902
     11        9           0.001971433   -0.001282083   -0.000731849
     12        9          -0.001844590    0.004073876   -0.000987063
     13        9           0.000469389   -0.001289308    0.002045298
     14        9          -0.000449606   -0.000610172    0.000550523
     15        9           0.000215963   -0.000606970   -0.000680057
     16        9           0.000117203    0.000591272   -0.000109735
     17        9          -0.000028973    0.000590569    0.000160530
 -------------------------------------------------------------------
 Cartesian Forces:  Max     0.004073876 RMS     0.001504603

 GradGradGradGradGradGradGradGradGradGradGradGradGradGradGradGradGradGrad
 Berny optimization.
 Using GEDIIS/GDIIS optimizer.
 FormGI is forming the generalized inverse of G from B-inverse, IUseBI=4.
 Internal  Forces:  Max     0.004341222 RMS     0.001306686
 Search for a local minimum.
 Step number   3 out of a maximum of   92
 All quantities printed in internal units (Hartrees-Bohrs-Radians)
 Mixed Optimization -- RFO/linear search
 Update second derivatives using D2CorX and points    1    2    3
 DE= -2.13D-03 DEPred=-2.64D-03 R= 8.08D-01
 TightC=F SS=  1.41D+00  RLast= 1.40D-01 DXNew= 8.4853D-01 4.1973D-01
 Trust test= 8.08D-01 RLast= 1.40D-01 DXMaxT set to 5.05D-01
 ITU=  1  1  0
 Use linear search instead of GDIIS.
     Eigenvalues ---    0.00230   0.00230   0.00230   0.00230   0.04995
     Eigenvalues ---    0.04995   0.05065   0.06673   0.06917   0.06999
     Eigenvalues ---    0.08424   0.08674   0.08852   0.08852   0.13309
     Eigenvalues ---    0.13427   0.13450   0.19314   0.19407   0.19407
     Eigenvalues ---    0.23644   0.24693   0.24917   0.25000   0.25000
     Eigenvalues ---    0.25000   0.25000   0.25000   0.25000   0.25007
     Eigenvalues ---    0.25060   0.25702   0.29604   0.43486   0.46022
     Eigenvalues ---    0.46022   0.46022   0.46217   0.46353   0.46577
     Eigenvalues ---    0.46709   0.46915   0.46915   0.46915   0.52990
 RFO step:  Lambda=-4.49350570D-04 EMin= 2.30000000D-03
 Quartic linear search produced a step of -0.10708.
 Iteration  1 RMS(Cart)=  0.01988128 RMS(Int)=  0.00013282
 Iteration  2 RMS(Cart)=  0.00021834 RMS(Int)=  0.00001767
 Iteration  3 RMS(Cart)=  0.00000002 RMS(Int)=  0.00001767
 ClnCor:  largest displacement from symmetrization is 1.41D-08 for atom     6.
 Variable       Old X    -DE/DX   Delta X   Delta X   Delta X     New X
                                 (Linear)    (Quad)   (Total)
    R1        2.93956  -0.00157  -0.00131  -0.00340  -0.00471   2.93485
    R2        2.93956  -0.00157  -0.00131  -0.00340  -0.00471   2.93485
    R3        2.56190  -0.00047   0.00234  -0.00430  -0.00196   2.55994
    R4        2.56190  -0.00047   0.00234  -0.00430  -0.00196   2.55994
    R5        2.93468  -0.00057  -0.00154   0.00056  -0.00098   2.93370
    R6        2.55701   0.00021   0.00244  -0.00308  -0.00064   2.55637
    R7        2.55701   0.00021   0.00244  -0.00308  -0.00064   2.55637
    R8        2.51988   0.00434   0.00329   0.00375   0.00704   2.52692
    R9        2.52601   0.00187   0.00315  -0.00093   0.00223   2.52823
[...]
   zx         0.000000D+00      0.000000D+00      0.000000D+00
   zy         0.000000D+00      0.000000D+00      0.000000D+00
   zz         0.519396D+02      0.769666D+01      0.856369D+01

 ----------------------------------------------------------------------
 1\1\GINC-SG11\Freq\RB3LYP\6-31G(d,p)\C5F12\KHW\04-Aug-2023\0\\#N Geom=
 AllCheck Guess=TCheck SCRF=Check GenChk RB3LYP/6-31G(d,p) Freq\\C5F12\
 \0,1\C,-0.0019130745,-0.025625664,-0.0011013719\C,1.2077435898,0.69723
 30575,0.655032246\C,2.2916647448,-0.2501915844,1.2388152707\F,3.267963
 595,0.4962560484,1.768796719\F,1.7735106724,-1.0286027478,2.1958454837
 \F,2.8106785104,-1.0236137487,0.278212711\F,1.8083510406,1.4773917907,
 -0.2723951404\F,0.7586320041,1.4723424176,1.668443702\C,-1.0868714016,
 0.9218515089,-0.5854452232\C,-2.2954981564,0.198842973,-1.2410221956\F
 ,-1.8923489277,-0.563237283,-2.2642615584\F,-3.1469881434,1.1242117319
 ,-1.6991502468\F,-2.9295167658,-0.568226282,-0.3466287857\F,-1.5711141
 265,1.7003998346,0.4089742073\F,-0.52139509,1.7054492077,-1.5318646352
 \F,-0.5852725169,-0.8113273447,0.9357171163\F,0.4645107864,-0.80627766
 25,-1.0052405501\\Version=ES64L-G16RevB.01\State=1-A1\HF=-1388.5921302
 \RMSD=3.449e-09\RMSF=1.022e-05\ZeroPoint=0.0661357\Thermal=0.0806202\D
 ipole=-0.0027733,-0.0371486,-0.0015966\DipoleDeriv=0.7679311,0.0152345
 ,-0.1857615,0.0152345,0.8635893,0.0075948,-0.1857615,0.0075948,1.01101
 03,0.7594498,-0.004544,-0.2053792,0.215028,0.8633791,0.1155823,-0.2048
 079,-0.0031752,1.0283758,1.5474342,0.1378456,0.0281399,-0.0750784,1.42
 95492,-0.0407798,0.027586,0.0743819,1.5111826,-0.7266485,-0.2286446,-0
 .2582741,-0.1630644,-0.4396235,-0.0886875,-0.2581034,-0.1241571,-0.390
 1426,-0.3840892,-0.0597973,0.0734235,-0.0854053,-0.4812382,0.2824803,0
 .1224831,0.2561526,-0.5745298,-0.4285405,0.1811463,0.1522492,0.1893608
 ,-0.4787565,-0.2255544,0.1031443,-0.1898194,-0.5325602,-0.4155281,-0.1
 197942,0.126622,-0.1692001,-0.4466261,0.2476303,0.1275465,0.1899719,-0
 .4847773,-0.3480531,0.0932934,0.0840985,0.114509,-0.444238,-0.2765276,
 0.0831007,-0.2036223,-0.5546405,0.7335831,0.0430519,-0.2192456,-0.1765
 202,0.8972962,-0.0961016,-0.2198168,0.0226558,1.0203253,1.5353241,-0.1
 555927,0.0208267,0.0573313,1.4454282,0.0308764,0.0213806,-0.0842854,1.
 5074136,-0.3656742,0.0411986,0.0357215,0.062359,-0.4532274,-0.2794784,
 0.0901454,-0.2608763,-0.6209556,-0.6598654,0.2809469,-0.2208281,0.2153
 667,-0.5271914,0.1157623,-0.2209987,0.1512319,-0.3693577,-0.4859538,-0
 .1965261,0.1681388,-0.200293,-0.4556315,0.2057093,0.1137602,0.1776998,
 -0.4982718,-0.3750442,0.1021878,0.0982985,0.1509664,-0.4484188,-0.2596
 37,0.1119705,-0.2030683,-0.5234685,-0.3821384,-0.1143373,0.1159201,-0.
 1349255,-0.4508354,0.2689738,0.1023214,0.1971582,-0.5139578,-0.4040592
 ,-0.1110849,0.1075615,-0.1453209,-0.4378851,0.2501891,0.1013622,0.1868
 598,-0.4886996,-0.3681278,0.095416,0.0784882,0.129652,-0.43557,-0.2580
 321,0.0846875,-0.1947028,-0.5269461\Polar=61.0394982,-0.8496603,52.022
 9826,3.9626469,-0.4639319,55.8508469\Quadrupole=0.1529992,-0.1330877,-
 0.0199115,-0.0272329,0.1320595,-0.0148379\PG=C02V [C2(C1),SGV(C4F2),SG
 V'(F2),X(F8)]\NImag=1\\0.52083674,0.00221136,0.54985619,-0.00066384,0.
 00126831,0.52171901,-0.14535744,-0.01532033,-0.05933221,0.52864795,-0.
 01235953,-0.09359919,-0.00683531,0.00308194,0.56324140,-0.05932450,-0.
 00843668,-0.06783917,-0.00157795,0.00174926,0.53073137,-0.01968835,0.0
 0815340,-0.02094932,-0.12259165,0.06145462,-0.04625109,0.58445256,-0.0
 0992989,0.03681988,-0.00532452,0.03438064,-0.09772638,0.01843650,-0.01
 191378,0.57698876,-0.02099637,0.00445598,0.00773986,-0.04632152,0.0330
 7969,-0.06174914,0.00568505,-0.00643559,0.57694215,-0.00157523,0.00994
 749,0.00013741,-0.03973128,-0.02992721,-0.02304698,-0.21541890,-0.0732
 7975,-0.07624963,0.25747444,0.00113270,-0.00416512,0.00060643,0.002789
 01,0.00114705,0.00150432,-0.07952766,-0.12372522,-0.04314051,0.1415131
 2,0.17897385,0.00011448,0.00537398,-0.00170555,-0.02296187,-0.01619052
 ,-0.00972462,-0.07626589,-0.03976128,-0.11614497,0.09762401,0.07680215
 ,0.13065745,-0.00039654,-0.00301172,0.00537349,0.01043935,0.00563094,-
 0.00453948,-0.09800882,-0.03675647,0.04475365,-0.02722016,-0.04788764,
 0.02247609,0.12664410,-0.00131211,-0.00629033,0.00175247,-0.01569337,-
 0.01148185,0.02613431,-0.03177247,-0.16663299,0.10437129,-0.04089487,-
 0.03099074,0.01623190,0.08118656,0.19170764,0.00315183,0.00231767,-0.0
 0224183,0.01913730,0.01412190,-0.01990546,0.03926135,0.10787586,-0.197
 40547,0.01075550,0.00577804,0.01885824,-0.09486677,-0.14311332,0.25442
 057,0.00221402,0.00030385,0.00144864,-0.00418847,0.01480086,0.02878372
 ,-0.12944539,0.07000174,0.06008670,0.02034137,-0.02118279,-0.02030004,
 -0.00654872,0.00193881,0.03609591,0.12955299,0.00075217,-0.00626451,-0
 .00205986,0.01327750,-0.01129804,-0.02740011,0.06977464,-0.16563027,-0
 .08358629,-0.00865370,-0.03070830,-0.04316196,-0.00607353,0.02403329,0
 .00654212,-0.07507776,0.19020425,0.00367588,-0.00378679,-0.00487821,0.
 00504750,-0.00303035,-0.00546145,0.06559137,-0.08966367,-0.16697161,-0
 .00852866,-0.04326665,-0.02898573,0.03971219,-0.00825459,-0.05614144,-
 0.09717583,0.14582054,0.25301508,-0.00924110,-0.02277267,0.03127812,-0
 .11616912,-0.06818479,0.05511906,0.00505599,0.00610051,-0.00380508,0.0
 0442965,0.00282940,0.00024365,-0.00045467,0.00373953,-0.00409120,0.001
 57979,-0.00073384,-0.00211600,0.13477510,-0.01263208,-0.01306019,0.023
 41871,-0.05939834,-0.17124373,0.09173741,-0.02501717,-0.02109173,0.026
 00816,0.00372143,0.00336222,-0.00100222,0.00482482,-0.00653237,0.00619
 352,0.00174906,0.00117373,-0.00121412,0.08763945,0.18412521,0.00717099
 ,0.00049324,-0.00277659,0.05420406,0.10058932,-0.15679826,0.02022089,0
 .02051348,-0.02344398,-0.00080904,-0.00073238,0.00226737,-0.00395381,0
 .00607746,-0.00427875,-0.00422255,0.00152932,0.00455921,-0.10136461,-0
 .13773895,0.22753067,0.01289804,-0.01196620,-0.00730702,-0.09474532,0.
 04686544,0.04046864,-0.00744781,0.02042192,0.02851701,0.00265156,0.000
 93284,0.00034664,0.00076121,0.00089217,-0.00368940,-0.00685090,0.00713
 150,0.00023554,-0.00707425,0.00454406,0.03497201,0.10716742,0.01267341
 ,-0.01288700,-0.02335763,0.04426287,-0.17019218,-0.09980306,0.00808494
 ,-0.02086333,-0.03515048,0.00119102,0.00334096,0.00366096,-0.00005327,
 0.00117290,0.00210339,0.00782321,-0.00650148,0.00061369,-0.00223696,0.
 02666089,0.00714864,-0.06713429,0.18263686,0.01689060,-0.01924333,-0.0
 2508893,0.04139973,-0.11199958,-0.17927362,0.00437799,-0.00615299,-0.0
 1116859,0.00140232,0.00276903,0.00406672,-0.00157885,-0.00147159,0.005
 37863,0.00010277,-0.00023136,0.00208659,0.03291576,-0.00539876,-0.0514
 6688,-0.08371093,0.14826356,0.25662670,-0.13942729,0.02706745,-0.05601
 456,-0.02134570,0.01894838,-0.02105130,-0.00132941,-0.00279429,-0.0014
 6098,-0.00081333,0.00025114,-0.00027023,0.00043100,-0.00027011,0.00053
 997,0.00008995,0.00023543,0.00075544,0.00308811,-0.00185206,0.00413434
 ,0.00038494,0.00079261,0.00336310,0.52852767,0.02410665,-0.10137498,0.
 01286750,-0.00860011,0.03531337,-0.00460554,0.00256396,-0.00754673,0.0
 0136357,-0.00502503,-0.00003230,-0.00271710,-0.00024391,0.00072848,-0.
 00057246,-0.00061706,0.00072913,0.00011547,0.00021122,-0.00555068,0.00
 403776,0.00348394,-0.00552215,-0.00204097,0.00228220,0.56339912,-0.056
 02226,0.01446888,-0.06599353,-0.02112297,0.01029430,0.00626970,-0.0014
 4704,-0.00153448,0.00057173,-0.00028396,0.00013656,-0.00046572,0.00053
 113,0.00046327,-0.00075764,0.00076212,-0.00047336,-0.00041723,0.001593
 63,0.00215912,-0.00450427,0.00591618,-0.00273389,-0.00182963,-0.001645
 08,0.00131713,0.53069393,-0.01792219,0.00181260,-0.02001057,-0.0014139
 9,-0.00335659,-0.00150819,-0.00212696,0.00201020,-0.00228843,0.0016395
 2,0.00008400,0.00102956,0.00027282,-0.00070767,0.00086718,0.00062584,-
 0.00036022,0.00046640,0.00074768,0.00040308,0.00049271,0.00047455,0.00
 104223,0.00142934,-0.13545773,-0.05116033,-0.05350280,0.58769693,0.019
 89589,0.03450402,0.01080098,0.00200166,-0.00743583,0.00105973,-0.00066
 531,0.00549476,-0.00035104,0.00154279,-0.00070209,0.00083329,-0.000169
 73,-0.00122015,0.00067590,0.00047420,-0.00121538,-0.00051347,-0.000157
 05,-0.00034127,-0.00016775,-0.00022728,-0.00033852,-0.00003584,-0.0240
 8635,-0.08085599,-0.01314197,0.00965658,0.57273465,-0.01996352,0.00102
 048,0.00828954,-0.00149425,-0.00183832,0.00054541,-0.00229539,0.001096
 03,0.00087519,0.00103335,0.00004429,0.00029537,0.00069779,0.00002987,-
 0.00024634,0.00063937,-0.00060969,-0.00060412,0.00124758,0.00098647,-0
 .00077794,0.00066971,-0.00020048,-0.00050755,-0.05343236,-0.02778516,-
 0.06575345,0.00749591,0.00521985,0.57795190,0.00005781,0.00163031,0.00
 522722,0.00050598,0.00023247,0.00048626,0.00035941,-0.00012190,0.00068
 160,-0.00023515,-0.00005500,-0.00018402,-0.00002143,0.00013051,-0.0002
 0416,-0.00009889,-0.00001702,-0.00021345,-0.00011025,-0.00002909,-0.00
 018560,-0.00014652,-0.00030652,-0.00043081,0.01137749,-0.00822864,-0.0
 0889807,-0.08980486,0.02329904,0.03157886,0.10520450,0.00013009,-0.006
 31280,-0.00288015,0.00025123,0.00064043,-0.00041580,0.00040373,-0.0012
 2926,-0.00021493,-0.00031182,0.00018637,-0.00011601,-0.00007188,0.0002
 5203,-0.00006940,-0.00021003,0.00040450,0.00026786,-0.00016036,0.00010
 774,0.00011184,-0.00028491,0.00046056,0.00025904,0.01092072,-0.0089621
 5,-0.02416181,0.01882428,-0.15645092,-0.10624188,-0.06254431,0.1879837
 8,0.00280951,-0.00309900,-0.00267370,0.00065071,0.00060700,-0.00074456
 ,0.00079865,-0.00088235,-0.00032381,-0.00042451,0.00008010,-0.00011683
 ,-0.00019879,0.00011902,0.00002801,-0.00032235,0.00038286,0.00032187,-
 0.00040197,-0.00020500,0.00035977,-0.00044337,0.00034872,0.00030223,0.
 01802976,-0.01592727,-0.02336330,0.02522280,-0.10886191,-0.21579149,-0
 .07918385,0.14954644,0.27958404,-0.00325209,-0.01001598,-0.00082147,-0
 .00009540,0.00502436,0.00013049,0.00133742,-0.00192450,0.00086094,-0.0
 0124466,-0.00000508,-0.00069887,-0.00016832,0.00040017,-0.00039933,-0.
 00038098,0.00035539,-0.00001555,-0.00040319,-0.00066385,0.00029565,0.0
 0011806,-0.00075924,-0.00068343,-0.03457852,0.03704742,-0.02008583,-0.
 19012130,0.08866501,-0.06214589,-0.01447686,0.03755773,0.01281943,0.21
 317695,-0.00120118,-0.00196637,-0.00065015,-0.00025181,-0.00097368,-0.
 00013792,-0.00046571,-0.00030598,-0.00025199,0.00027666,0.00015884,0.0
 0014993,0.00012252,0.00011062,0.00000420,0.00007056,0.00011016,0.00010
 023,0.00020893,0.00044597,-0.00020885,-0.00006097,0.00044420,0.0002900
 9,0.00433120,-0.00560940,0.00232085,0.09491292,-0.15689618,0.05112085,
 0.04359139,-0.04123897,-0.01218180,-0.15300146,0.23705803,-0.00079854,
 -0.00541771,-0.00222743,0.00011676,0.00271575,-0.00024228,0.00086474,-
 0.00104099,0.00020135,-0.00069814,-0.00000246,-0.00033013,-0.00015524,
 0.00016413,-0.00010791,-0.00026110,0.00024452,0.00010521,-0.00034000,-
 0.00047545,0.00036748,-0.00004370,-0.00029303,-0.00015200,-0.02017094,
 0.02001570,-0.00812093,-0.06212964,0.04774161,-0.10827160,0.02341465,-
 0.02430164,0.01636317,0.07289912,-0.08233743,0.11687076,0.00183491,-0.
 00169007,0.00164248,0.00015001,0.00063062,0.00088451,0.00056061,-0.000
 80394,0.00066391,-0.00043053,0.00003678,-0.00029581,-0.00005055,0.0003
 1153,-0.00035261,-0.00017155,0.00017052,-0.00009998,-0.00023306,0.0001
 2411,-0.00038571,-0.00004981,-0.00018605,-0.00044157,-0.00870197,-0.01
 795824,0.03108726,-0.15168399,-0.07860706,0.06544034,-0.00575210,-0.00
 056110,0.03512885,0.02369114,0.01385584,-0.01220538,0.15439815,-0.0023
 3778,-0.00634068,0.00168130,-0.00021443,0.00064012,0.00044391,0.000042
 79,-0.00123428,0.00045411,-0.00026888,0.00018702,-0.00019768,0.0001092
 0,0.00040761,-0.00032262,-0.00009792,0.00025211,-0.00002209,0.00006084
 ,0.00046430,-0.00038077,0.00000638,0.00010779,-0.00019715,-0.01425994,
 -0.00912961,0.02240879,-0.07888920,-0.15740970,0.07403435,0.00701903,0
 .02298875,-0.00501738,0.00036764,-0.04156178,0.04462771,0.09129519,0.1
 8946264,0.00405461,0.00306188,-0.00442293,0.00071792,-0.00013198,-0.00
 038828,0.00055043,0.00037928,-0.00052000,-0.00005679,-0.00008956,0.000
 07790,-0.00024474,-0.00022380,0.00027041,-0.00010657,0.00004415,0.0001
 7806,-0.00037325,-0.00044791,0.00038504,-0.00022504,0.00008660,0.00029
 928,0.00421887,0.00181690,-0.00311638,0.07178403,0.07922719,-0.1529535
 8,0.04156852,0.00902861,-0.05589351,-0.00166094,0.04306643,-0.02148202
 ,-0.11095791,-0.13460468,0.22891152,-0.00435510,0.01902402,0.02918136,
 0.00310831,-0.00159002,0.00117312,0.00067745,-0.00009135,0.00109306,-0
 .00031819,-0.00007209,-0.00027731,-0.00007406,0.00021955,-0.00035247,-
 0.00024083,0.00006870,-0.00030197,-0.00074076,0.00001000,-0.00039676,-
 0.00709985,0.00060463,-0.00458836,-0.09918783,0.05425941,0.04607850,0.
 00719359,-0.00952959,-0.00826590,-0.00178134,-0.00396932,-0.00530610,0
 .00344789,-0.00287077,0.00015262,0.00146241,0.00086458,-0.00186544,0.1
 1118933,0.01083153,-0.01557499,-0.02883821,0.00026086,-0.00499951,-0.0
 0241294,-0.00059237,-0.00019376,-0.00111486,0.00074495,0.00030223,0.00
 051992,0.00007232,0.00006186,0.00023747,0.00000714,0.00039615,0.000499
 45,0.00025602,0.00078936,0.00037842,-0.00086225,0.00336267,0.00218313,
 0.04563964,-0.17100817,-0.09984301,0.01938895,-0.01917823,-0.02466403,
 -0.00506309,-0.00420198,-0.00554195,-0.00366799,0.00418131,0.00109530,
 -0.00141200,0.00130189,0.00122742,-0.07035979,0.18322980,0.00796189,-0
 .00252890,-0.00514779,0.00357401,-0.00466050,-0.00507564,0.00047259,0.
 00014204,-0.00085521,0.00038393,0.00015650,0.00042623,-0.00019744,-0.0
 0010709,0.00036946,-0.00032959,0.00043530,0.00046096,-0.00044341,-0.00
 038798,0.00163989,-0.00681592,0.00319419,0.00086474,0.04311533,-0.1084
 0540,-0.17401511,0.01887561,-0.02298924,-0.02749508,-0.00524614,-0.005
 44063,-0.00528247,-0.00100067,0.00099015,0.00243004,-0.00455941,-0.001
 15764,0.00454843,-0.08689204,0.14704408,0.25201184,0.01212586,0.008368
 29,-0.00282362,-0.00043468,-0.00478444,0.00587812,0.00032376,0.0000671
 6,0.00070563,0.00025001,0.00009136,0.00001061,-0.00004040,0.00040281,-
 0.00045965,-0.00001591,0.00003133,-0.00023558,-0.00675502,0.00301046,-
 0.00703137,0.00054148,-0.00031460,-0.00128352,-0.11047835,-0.06109574,
 0.05022202,-0.01216710,-0.02456718,0.03142380,0.00068126,-0.00048066,-
 0.00404609,0.00235052,-0.00074557,-0.00027535,-0.00903654,-0.00673444,
 -0.00050535,-0.00709918,-0.00243803,0.03372383,0.12984556,-0.01821943,
 -0.01576637,0.02486709,-0.00188072,-0.00502509,0.00153779,-0.00126146,
 -0.00019621,0.00011723,0.00084537,0.00030349,0.00034069,0.00042269,0.0
 0039975,-0.00026784,0.00023972,0.00006176,-0.00007097,0.00135245,0.003
 38489,-0.00192034,0.00046127,0.00078876,0.00000608,-0.05865985,-0.1720
 6450,0.09291716,-0.01003106,-0.01939163,0.02974973,0.00025847,0.001303
 47,-0.00187856,-0.00109857,0.00420392,-0.00366715,-0.00741766,-0.00422
 643,-0.00122998,0.00441365,0.02669358,-0.00554969,0.08483054,0.1847223
 7,0.01830536,0.01736895,-0.02143738,0.00348959,0.00121378,-0.00150707,
 0.00132134,-0.00015009,-0.00049907,-0.00064655,-0.00014561,-0.00014323
 ,-0.00043214,-0.00018115,0.00025693,-0.00039045,0.00024051,0.00031141,
 -0.00481194,-0.00124127,0.00049770,-0.00123422,0.00021978,0.00035826,0
 .05316910,0.10482415,-0.16166827,0.00439533,0.00457213,-0.00792099,-0.
 00135611,0.00133805,0.00532800,0.00087495,-0.00293990,0.00350481,-0.00
 056993,-0.00037020,0.00199718,0.03413611,0.00712045,-0.05147463,-0.098
 69009,-0.13978013,0.23186305,-0.11244304,-0.06386371,0.05141925,-0.009
 19319,-0.02386090,0.03138041,0.00355243,0.00048432,0.00179799,-0.00038
 201,-0.00015762,-0.00026475,-0.00615631,0.00113822,-0.00412510,-0.0007
 1687,0.00023106,-0.00045872,-0.00948004,-0.00713004,-0.00106883,0.0008
 2185,-0.00077156,-0.00363535,0.01157939,0.00896892,-0.00237310,-0.0013
 4691,-0.00547765,0.00613886,0.00064350,-0.00013516,-0.00128892,0.00084
 614,0.00084785,-0.00023603,-0.00530061,0.00298867,-0.00650313,0.001042
 56,-0.00049774,-0.00232712,-0.00096324,0.00463983,-0.00423968,0.134532
 32,-0.05797472,-0.16930857,0.09077841,-0.01264120,-0.01359361,0.024646
 97,-0.00110045,-0.00647956,0.00292078,-0.00054143,0.00118317,-0.000700
 30,0.00237998,0.00333518,-0.00163791,-0.00015346,0.00094034,-0.0004796
 7,-0.00733272,-0.00379326,-0.00110886,0.00071210,0.00109923,-0.0014632
 0,-0.01928821,-0.01635568,0.02545695,-0.00300375,-0.00566268,0.0012076
 5,0.00063743,0.00088574,0.00010115,0.00100635,0.00092147,0.00019862,0.
 00177972,0.00320460,-0.00168435,0.00113763,0.00102866,-0.00134954,0.00
 485687,-0.00622025,0.00624197,0.08499638,0.18221809,0.05248559,0.10167
 177,-0.15707089,0.00712729,0.00044165,-0.00352440,0.00376782,0.0046552
 5,-0.00551568,0.00030546,-0.00081992,0.00096389,-0.00606080,-0.0020802
 3,0.00108845,-0.00041381,0.00019106,0.00172121,-0.00090807,-0.00099773
 ,0.00188479,-0.00196553,0.00132677,0.00471772,0.01879499,0.01814670,-0
 .02153490,0.00433003,0.00111788,-0.00143321,-0.00126356,0.00014825,0.0
 0041545,-0.00084704,-0.00009854,-0.00000256,-0.00456149,-0.00118135,0.
 00036333,-0.00343216,0.00163004,0.00456758,-0.00439784,0.00615742,-0.0
 0420503,-0.09744503,-0.13754483,0.22887933,-0.09630900,0.05012191,0.04
 221462,0.01241464,-0.01260614,-0.00700486,-0.00026235,0.00414937,0.006
 27648,0.00058291,-0.00077246,-0.00032623,0.00059151,0.00029072,-0.0012
 6837,-0.00574546,-0.00111219,-0.00633860,0.00098515,0.00069615,-0.0020
 7238,-0.00240465,-0.00471245,-0.00552879,-0.00415841,0.02000536,0.0291
 9026,0.00339410,-0.00204795,0.00123174,-0.00640254,0.00064177,-0.00384
 375,-0.00024681,0.00037961,-0.00013384,-0.00068652,0.00004826,-0.00039
 522,-0.00722439,0.00769185,-0.00029546,0.00087197,0.00110477,-0.003320
 68,-0.00703596,0.00452949,0.03448415,0.11163583,0.04423292,-0.16826901
 ,-0.09809537,0.01369463,-0.01341329,-0.02403815,0.00183831,-0.00644770
 ,-0.00252511,-0.00088014,0.00117856,-0.00006578,-0.00048090,0.00093902
 ,0.00013347,-0.00007013,0.00331256,0.00288514,-0.00081996,0.00109892,0
 .00137842,-0.00491574,-0.00377017,-0.00553616,0.01074203,-0.01615777,-
 0.03005449,-0.00062602,-0.00563486,-0.00317001,-0.00043309,0.00318269,
 0.00240993,0.00071259,0.00091783,0.00073252,0.00043182,0.00088566,0.00
 047378,0.00788077,-0.00619088,0.00061433,-0.00049816,0.00102851,0.0016
 6860,-0.00240087,0.02659714,0.00723582,-0.06840806,0.18074280,0.041148
 28,-0.10898873,-0.17424449,0.01734588,-0.02012609,-0.02531254,0.004296
 51,-0.00215249,-0.00173275,-0.00089772,0.00031966,0.00000358,-0.001316
 29,0.00008805,0.00041415,-0.00439695,0.00209223,0.00070022,-0.00374228
 ,-0.00139399,0.00455473,-0.00569061,-0.00542773,-0.00521369,0.00792456
 ,-0.00245098,-0.00599501,0.00305071,-0.00518733,-0.00620205,-0.0057913
 4,0.00314216,0.00148716,0.00047844,0.00076386,0.00109403,-0.00041757,-
 0.00019863,0.00174555,-0.00013624,0.00047931,0.00202676,-0.00221555,-0
 .00132853,0.00473833,0.03322924,-0.00558384,-0.05131509,-0.08286907,0.
 14595306,0.25325110\\-0.00000012,-0.00000165,-0.00000007,-0.00000836,-
 0.00000200,-0.00000453,0.00002398,0.00002144,0.00001303,-0.00001899,-0
 .00001236,-0.00001030,-0.00000610,-0.00000769,0.00001291,0.00000748,-0
 .00000763,-0.00001220,-0.00000184,0.00000527,0.00000846,0.00000606,0.0
 0000531,-0.00000615,0.00000794,-0.00000360,0.00000429,-0.00002045,0.00
 002579,-0.00001100,0.00000497,-0.00000738,-0.00001355,0.00001688,-0.00
 001588,0.00000909,-0.00000861,-0.00000745,0.00001155,0.00000266,0.0000
 0565,-0.00000799,-0.00000524,0.00000561,0.00000662,0.00000129,-0.00000
 171,-0.00000269,-0.00000154,-0.00000172,0.00000254\\\@


 A MUSTACHE HAIR ACROSS A CHIP IS LIKE A REDWOOD
 TREE FALLING THROUGH A HOUSING PROJECT.
 - AN IBM MANAGER IN EAST FISHKILL, NEW YORK
   AS QUOTED IN "FROM SANDS TO CIRCUITS", IBM INNOVATION JANUARY 1985.
 Job cpu time:       0 days  0 hours  7 minutes 46.7 seconds.
 Elapsed time:       0 days  0 hours  0 minutes 50.5 seconds.
 File lengths (MBytes):  RWF=    137 Int=      0 D2E=      0 Chk=      7 Scr=      2
 Normal termination of Gaussian 16 at Fri Aug  4 14:28:22 2023.
