 Entering Gaussian System, Link 0=g16
 Input=mol_0.com
 Output=mol_0.log
 Initial command:
 /usr/local/g16/l1.exe "/home/ycw79/xtb_test/mol_calc3/Gau-1411087.inp" -scrdir="/home/ycw79/xtb_test/mol_calc3/"
 Entering Link 1 = /usr/local/g16/l1.exe PID=   1411089.
  
 Copyright (c) 1988-2019, Gaussian, Inc.  All Rights Reserved.
  
 This is part of the Gaussian(R) 16 program.  It is based on
 the Gaussian(R) 09 system (copyright 2009, Gaussian, Inc.),
 the Gaussian(R) 03 system (copyright 2003, Gaussian, Inc.),
 the Gaussian(R) 98 system (copyright 1998, Gaussian, Inc.),
 the Gaussian(R) 94 system (copyright 1995, Gaussian, Inc.),
 the Gaussian 92(TM) system (copyright 1992, Gaussian, Inc.),
 the Gaussian 90(TM) system (copyright 1990, Gaussian, Inc.),
 the Gaussian 88(TM) system (copyright 1988, Gaussian, Inc.),
 the Gaussian 86(TM) system (copyright 1986, Carnegie Mellon
 University), and the Gaussian 82(TM) system (copyright 1983,
 Carnegie Mellon University). Gaussian is a federally registered
 trademark of Gaussian, Inc.
  
 This software contains proprietary and confidential information,
 including trade secrets, belonging to Gaussian, Inc.
  
 This software is provided under written license and may be
 used, copied, transmitted, or stored only in accord with that
 written license.
  
 The following legend is applicable only to US Government
 contracts under FAR:
  
                    RESTRICTED RIGHTS LEGEND
  
 Use, reproduction and disclosure by the US Government is
 subject to restrictions as set forth in subparagraphs (a)
 and (c) of the Commercial Computer Software - Restricted
 Rights clause in FAR 52.227-19.
  
 Gaussian, Inc.
 340 Quinnipiac St., Bldg. 40, Wallingford CT 06492
  
  
 ---------------------------------------------------------------
 Warning -- This program may not be used in any manner that
 competes with the business of Gaussian, Inc. or will provide
 assistance to any competitor of Gaussian, Inc.  The licensee
 of this program is prohibited from giving any competitor of
 Gaussian, Inc. access to this program.  By using this program,
 the user acknowledges that Gaussian, Inc. is engaged in the
 business of creating and licensing software in the field of
 computational chemistry and represents and warrants to the
 licensee that it is not a competitor of Gaussian, Inc. and that
 it will not use this program in any manner prohibited above.
 ---------------------------------------------------------------
  

 Cite this work as:
 Gaussian 16, Revision C.01,
 M. J. Frisch, G. W. Trucks, H. B. Schlegel, G. E. Scuseria, 
 M. A. Robb, J. R. Cheeseman, G. Scalmani, V. Barone, 
 G. A. Petersson, H. Nakatsuji, X. Li, M. Caricato, A. V. Marenich, 
 J. Bloino, B. G. Janesko, R. Gomperts, B. Mennucci, H. P. Hratchian, 
 J. V. Ortiz, A. F. Izmaylov, J. L. Sonnenberg, D. Williams-Young, 
 F. Ding, F. Lipparini, F. Egidi, J. Goings, B. Peng, A. Petrone, 
 T. Henderson, D. Ranasinghe, V. G. Zakrzewski, J. Gao, N. Rega, 
 G. Zheng, W. Liang, M. Hada, M. Ehara, K. Toyota, R. Fukuda, 
 J. Hasegawa, M. Ishida, T. Nakajima, Y. Honda, O. Kitao, H. Nakai, 
 T. Vreven, K. Throssell, J. A. Montgomery, Jr., J. E. Peralta, 
 F. Ogliaro, M. J. Bearpark, J. J. Heyd, E. N. Brothers, K. N. Kudin, 
 V. N. Staroverov, T. A. Keith, R. Kobayashi, J. Normand, 
 K. Raghavachari, A. P. Rendell, J. C. Burant, S. S. Iyengar, 
 J. Tomasi, M. Cossi, J. M. Millam, M. Klene, C. Adamo, R. Cammi, 
 J. W. Ochterski, R. L. Martin, K. Morokuma, O. Farkas, 
 J. B. Foresman, and D. J. Fox, Gaussian, Inc., Wallingford CT, 2019.
 
 ******************************************
 Gaussian 16:  ES64L-G16RevC.01  3-Jul-2019
                 1-Feb-2023 
 ******************************************
 %chk=mol_0.chk
 %nprocs=16
 Will use up to   16 processors via shared memory.
 %cpu=0,2,4,6,8,10,12,14,16,18,20,22,24,26,28,30
 SetSPE:  set environment variable "MP_BIND" = "yes"
 SetSPE:  set environment variable "MP_BLIST" = "0,2,4,6,8,10,12,14,16,18,20,22,24,26,28,30"
 Will use up to   16 processors via shared memory.
 %mem=120GB
 ----------------------------------
 # opt=calcfc freq b3lyp/6-31g(d,p)
 ----------------------------------
 1/10=4,18=20,19=15,26=3,38=1/1,3;
 2/9=110,12=2,17=6,18=5,40=1/2;
 3/5=1,6=6,7=101,11=2,25=1,30=1,71=2,74=-5,140=1/1,2,3;
 4//1;
 5/5=2,38=5/2;
 8/6=4,10=90,11=11/1;
 11/6=1,8=1,9=11,15=111,16=1/1,2,10;
 10/6=1,13=1/2;
 6/7=2,8=2,9=2,10=2,28=1/1;
 7/10=1,25=1/1,2,3,16;
 1/10=4,18=20,19=15,26=3/3(2);
 2/9=110/2;
 99//99;
 2/9=110/2;
 3/5=1,6=6,7=101,11=2,25=1,30=1,71=1,74=-5/1,2,3;
 4/5=5,16=3,69=1/1;
 5/5=2,38=5/2;
 7//1,2,3,16;
 1/18=20,19=15,26=3/3(-5);
 2/9=110/2;
 6/7=2,8=2,9=2,10=2,19=2,28=1/1;
 99/9=1/99;
 ----
 test
 ----
 Symbolic Z-matrix:
 Charge =  0 Multiplicity = 1
 C                     0.91769   0.02519   0.04112 
 F                     0.46423   0.85245  -0.93899 
 Cl                    0.31568  -1.6148   -0.2724 
 Cl                    0.31569   0.60968   1.60517 
 Cl                    2.69246   0.03945   0.02423 
 

 GradGradGradGradGradGradGradGradGradGradGradGradGradGradGradGradGradGrad
 Berny optimization.
 Initialization pass.
                           ----------------------------
                           !    Initial Parameters    !
                           ! (Angstroms and Degrees)  !
 --------------------------                            --------------------------
 ! Name  Definition              Value          Derivative Info.                !
 --------------------------------------------------------------------------------
 ! R1    R(1,2)                  1.3604         calculate D2E/DX2 analytically  !
 ! R2    R(1,3)                  1.7749         calculate D2E/DX2 analytically  !
 ! R3    R(1,4)                  1.7749         calculate D2E/DX2 analytically  !
 ! R4    R(1,5)                  1.7749         calculate D2E/DX2 analytically  !
 ! A1    A(2,1,3)              108.7576         calculate D2E/DX2 analytically  !
 ! A2    A(2,1,4)              108.7578         calculate D2E/DX2 analytically  !
 ! A3    A(2,1,5)              108.7578         calculate D2E/DX2 analytically  !
 ! A4    A(3,1,4)              110.1752         calculate D2E/DX2 analytically  !
 ! A5    A(3,1,5)              110.1754         calculate D2E/DX2 analytically  !
 ! A6    A(4,1,5)              110.1749         calculate D2E/DX2 analytically  !
 ! D1    D(2,1,4,3)            119.1165         calculate D2E/DX2 analytically  !
 ! D2    D(2,1,5,3)           -119.1166         calculate D2E/DX2 analytically  !
 ! D3    D(2,1,5,4)            119.1164         calculate D2E/DX2 analytically  !
 ! D4    D(3,1,5,4)           -121.767          calculate D2E/DX2 analytically  !
 --------------------------------------------------------------------------------
 Trust Radius=3.00D-01 FncErr=1.00D-07 GrdErr=1.00D-06 EigMax=2.50D+02 EigMin=1.00D-04
 Number of steps in this run=     24 maximum allowed number of steps=    100.
 GradGradGradGradGradGradGradGradGradGradGradGradGradGradGradGradGradGrad

                          Input orientation:                          
 ---------------------------------------------------------------------
 Center     Atomic      Atomic             Coordinates (Angstroms)
 Number     Number       Type             X           Y           Z
 ---------------------------------------------------------------------
      1          6           0        0.917690    0.025190    0.041120
      2          9           0        0.464230    0.852450   -0.938990
      3         17           0        0.315680   -1.614800   -0.272400
      4         17           0        0.315690    0.609680    1.605170
      5         17           0        2.692460    0.039450    0.024230
 ---------------------------------------------------------------------
                    Distance matrix (angstroms):
                    1          2          3          4          5
     1  C    0.000000
     2  F    1.360368   0.000000
     3  Cl   1.774902   2.560026   0.000000
     4  Cl   1.774904   2.560030   2.910941   0.000000
     5  Cl   1.774908   2.560033   2.910948   2.910940   0.000000
 Stoichiometry    CCl3F
 Framework group  C1[X(CCl3F)]
 Deg. of freedom     9
 Full point group                 C1      NOp   1
 Largest Abelian subgroup         C1      NOp   1
 Largest concise Abelian subgroup C1      NOp   1
                         Standard orientation:                         
 ---------------------------------------------------------------------
 Center     Atomic      Atomic             Coordinates (Angstroms)
 Number     Number       Type             X           Y           Z
 ---------------------------------------------------------------------
      1          6           0        0.000003   -0.000001    0.255531
      2          9           0        0.000011   -0.000003    1.615898
      3         17           0        1.543427   -0.665103   -0.315226
      4         17           0       -0.195718    1.669197   -0.315219
      5         17           0       -1.347715   -1.004092   -0.315218
 ---------------------------------------------------------------------
 Rotational constants (GHZ):           2.4184686           2.4184573           1.7055657
 Standard basis: 6-31G(d,p) (6D, 7F)
 There are    87 symmetry adapted cartesian basis functions of A   symmetry.
 There are    87 symmetry adapted basis functions of A   symmetry.
    87 basis functions,   212 primitive gaussians,    87 cartesian basis functions
    33 alpha electrons       33 beta electrons
       nuclear repulsion energy       364.7275675349 Hartrees.
 NAtoms=    5 NActive=    5 NUniq=    5 SFac= 1.00D+00 NAtFMM=   60 NAOKFM=F Big=F
 Integral buffers will be    131072 words long.
 Raffenetti 2 integral format.
 Two-electron integral symmetry is turned on.
 One-electron integrals computed using PRISM.
 NBasis=    87 RedAO= T EigKep=  4.67D-03  NBF=    87
 NBsUse=    87 1.00D-06 EigRej= -1.00D+00 NBFU=    87
 ExpMin= 1.43D-01 ExpMax= 2.52D+04 ExpMxC= 3.78D+03 IAcc=3 IRadAn=         5 AccDes= 0.00D+00
 Harris functional with IExCor=  402 and IRadAn=       5 diagonalized for initial guess.
 HarFok:  IExCor=  402 AccDes= 0.00D+00 IRadAn=         5 IDoV= 1 UseB2=F ITyADJ=14
 ICtDFT=  3500011 ScaDFX=  1.000000  1.000000  1.000000  1.000000
 FoFCou: FMM=F IPFlag=           0 FMFlag=      100000 FMFlg1=           0
         NFxFlg=           0 DoJE=T BraDBF=F KetDBF=T FulRan=T
         wScrn=  0.000000 ICntrl=       500 IOpCl=  0 I1Cent=   200000004 NGrid=           0
         NMat0=    1 NMatS0=      1 NMatT0=    0 NMatD0=    1 NMtDS0=    0 NMtDT0=    0
 Petite list used in FoFCou.
 Keep R1 ints in memory in canonical form, NReq=21889216.
 Requested convergence on RMS density matrix=1.00D-08 within 128 cycles.
 Requested convergence on MAX density matrix=1.00D-06.
 Requested convergence on             energy=1.00D-06.
 No special actions if energy rises.
 Integral accuracy reduced to 1.0D-05 until final iterations.
 Initial convergence to 1.0D-05 achieved.  Increase integral accuracy.
 SCF Done:  E(RB3LYP) =  -1518.50425588     A.U. after   13 cycles
            NFock= 13  Conv=0.15D-08     -V/T= 2.0034
 DoSCS=F DFT=T ScalE2(SS,OS)=  1.000000  1.000000
 Range of M.O.s used for correlation:     1    87
 NBasis=    87 NAE=    33 NBE=    33 NFC=     0 NFV=     0
 NROrb=     87 NOA=    33 NOB=    33 NVA=    54 NVB=    54
 Symmetrizing basis deriv contribution to polar:
 IMax=3 JMax=2 DiffMx= 0.00D+00
 G2DrvN: will do     6 centers at a time, making    1 passes.
 Calling FoFCou, ICntrl=  3107 FMM=F I1Cent=   0 AccDes= 0.00D+00.
 End of G2Drv F.D. properties file   721 does not exist.
 End of G2Drv F.D. properties file   722 does not exist.
 End of G2Drv F.D. properties file   788 does not exist.
          IDoAtm=11111
          Differentiating once with respect to nuclear coordinates.
 Keep R1 ints in memory in canonical form, NReq=21837792.
          There are    18 degrees of freedom in the 1st order CPHF.  IDoFFX=6 NUNeed=     0.
     12 vectors produced by pass  0 Test12= 9.90D-15 5.56D-09 XBig12= 1.65D-01 1.64D-01.
 AX will form    12 AO Fock derivatives at one time.
     12 vectors produced by pass  1 Test12= 9.90D-15 5.56D-09 XBig12= 2.11D-02 5.30D-02.
     12 vectors produced by pass  2 Test12= 9.90D-15 5.56D-09 XBig12= 2.24D-03 1.98D-02.
     12 vectors produced by pass  3 Test12= 9.90D-15 5.56D-09 XBig12= 7.68D-05 1.93D-03.
     12 vectors produced by pass  4 Test12= 9.90D-15 5.56D-09 XBig12= 5.60D-06 5.59D-04.
     12 vectors produced by pass  5 Test12= 9.90D-15 5.56D-09 XBig12= 2.91D-08 5.39D-05.
      9 vectors produced by pass  6 Test12= 9.90D-15 5.56D-09 XBig12= 1.08D-10 2.66D-06.
      2 vectors produced by pass  7 Test12= 9.90D-15 5.56D-09 XBig12= 2.12D-13 1.82D-07.
 InvSVY:  IOpt=1 It=  1 EMax= 1.33D-15
 Solved reduced A of dimension    83 with    12 vectors.
 End of Minotr F.D. properties file   721 does not exist.
 End of Minotr F.D. properties file   722 does not exist.
 End of Minotr F.D. properties file   788 does not exist.

 **********************************************************************

            Population analysis using the SCF Density.

 **********************************************************************

 Orbital symmetries:
       Occupied  (A) (A) (A) (A) (A) (A) (A) (A) (A) (A) (A) (A)
                 (A) (A) (A) (A) (A) (A) (A) (A) (A) (A) (A) (A)
                 (A) (A) (A) (A) (A) (A) (A) (A) (A)
       Virtual   (A) (A) (A) (A) (A) (A) (A) (A) (A) (A) (A) (A)
                 (A) (A) (A) (A) (A) (A) (A) (A) (A) (A) (A) (A)
                 (A) (A) (A) (A) (A) (A) (A) (A) (A) (A) (A) (A)
                 (A) (A) (A) (A) (A) (A) (A) (A) (A) (A) (A) (A)
                 (A) (A) (A) (A) (A) (A)
 The electronic state is 1-A.
 Alpha  occ. eigenvalues -- -101.58356-101.58355-101.58355 -24.75628 -10.45694
 Alpha  occ. eigenvalues --   -9.50140  -9.50140  -9.50138  -7.26613  -7.26610
 Alpha  occ. eigenvalues --   -7.26610  -7.25491  -7.25490  -7.25489  -7.25478
 Alpha  occ. eigenvalues --   -7.25478  -7.25478  -1.27446  -0.95299  -0.86375
 Alpha  occ. eigenvalues --   -0.86375  -0.66683  -0.55973  -0.54275  -0.54275
 Alpha  occ. eigenvalues --   -0.43082  -0.43082  -0.37764  -0.36705  -0.36705
 Alpha  occ. eigenvalues --   -0.33744  -0.33744  -0.32376
 Alpha virt. eigenvalues --   -0.05813  -0.00027  -0.00027   0.08262   0.26347
 Alpha virt. eigenvalues --    0.35043   0.35044   0.38487   0.39258   0.39258
 Alpha virt. eigenvalues --    0.40994   0.45733   0.45733   0.47506   0.47551
 Alpha virt. eigenvalues --    0.47551   0.49346   0.57506   0.57506   0.74102
 Alpha virt. eigenvalues --    0.74103   0.82012   0.83024   0.83728   0.83728
 Alpha virt. eigenvalues --    0.84348   0.84348   0.87377   0.91058   1.00957
 Alpha virt. eigenvalues --    1.00957   1.01403   1.05635   1.05635   1.19714
 Alpha virt. eigenvalues --    1.28453   1.34869   1.34869   1.52231   1.52231
 Alpha virt. eigenvalues --    1.82062   1.82062   1.94112   2.01043   2.05564
 Alpha virt. eigenvalues --    2.05564   2.39321   2.39321   2.97813   3.95117
 Alpha virt. eigenvalues --    4.25044   4.25045   4.29045   4.32890
          Condensed to atoms (all electrons):
               1          2          3          4          5
     1  C    5.066082   0.190640   0.244033   0.244030   0.244034
     2  F    0.190640   9.138099  -0.039603  -0.039603  -0.039603
     3  Cl   0.244033  -0.039603  16.888578  -0.079629  -0.079628
     4  Cl   0.244030  -0.039603  -0.079629  16.888580  -0.079630
     5  Cl   0.244034  -0.039603  -0.079628  -0.079630  16.888580
 Mulliken charges:
               1
     1  C    0.011181
     2  F   -0.209930
     3  Cl   0.066249
     4  Cl   0.066252
     5  Cl   0.066247
 Sum of Mulliken charges =  -0.00000
 Mulliken charges with hydrogens summed into heavy atoms:
               1
     1  C    0.011181
     2  F   -0.209930
     3  Cl   0.066249
     4  Cl   0.066252
     5  Cl   0.066247
 APT charges:
               1
     1  C   -0.370277
     2  F   -0.021549
     3  Cl   0.130609
     4  Cl   0.130610
     5  Cl   0.130607
 Sum of APT charges =  -0.00000
 APT charges with hydrogens summed into heavy atoms:
               1
     1  C   -0.370277
     2  F   -0.021549
     3  Cl   0.130609
     4  Cl   0.130610
     5  Cl   0.130607
 Electronic spatial extent (au):  <R**2>=            723.4516
 Charge=             -0.0000 electrons
 Dipole moment (field-independent basis, Debye):
    X=              0.0000    Y=             -0.0000    Z=             -0.2967  Tot=              0.2967
 Quadrupole moment (field-independent basis, Debye-Ang):
   XX=            -46.8897   YY=            -46.8897   ZZ=            -48.2829
   XY=             -0.0000   XZ=             -0.0000   YZ=             -0.0000
 Traceless Quadrupole moment (field-independent basis, Debye-Ang):
   XX=              0.4644   YY=              0.4644   ZZ=             -0.9288
   XY=             -0.0000   XZ=             -0.0000   YZ=             -0.0000
 Octapole moment (field-independent basis, Debye-Ang**2):
  XXX=              1.3949  YYY=              3.8194  ZZZ=              7.7279  XYY=             -1.3948
  XXY=             -3.8193  XXZ=              0.6085  XZZ=              0.0000  YZZ=              0.0000
  YYZ=              0.6086  XYZ=              0.0000
 Hexadecapole moment (field-independent basis, Debye-Ang**3):
 XXXX=           -344.1954 YYYY=           -344.1936 ZZZZ=           -144.6603 XXXY=              0.0000
 XXXZ=             -1.7015 YYYX=             -0.0001 YYYZ=             -4.6594 ZZZX=              0.0001
 ZZZY=             -0.0000 XXYY=           -114.7315 XXZZ=            -82.9766 YYZZ=            -82.9763
 XXYZ=              4.6593 YYXZ=              1.7016 ZZXY=             -0.0000
 N-N= 3.647275675349D+02 E-N=-4.336129032951D+03  KE= 1.513419434466D+03
  Exact polarizability:       0.000       0.000       0.000       0.000       0.000       0.000
 Approx polarizability:      66.795       0.000      66.795       0.000      -0.000      46.121
 Calling FoFJK, ICntrl=    100127 FMM=F ISym2X=0 I1Cent= 0 IOpClX= 0 NMat=1 NMatS=1 NMatT=0.
 ***** Axes restored to original set *****
 -------------------------------------------------------------------
 Center     Atomic                   Forces (Hartrees/Bohr)
 Number     Number              X              Y              Z
 -------------------------------------------------------------------
      1        6          -0.003972373    0.007240127   -0.008598210
      2        9           0.004779588   -0.008715619    0.010328639
      3       17          -0.003225725   -0.004331289   -0.003277285
      4       17          -0.003220770    0.003969503    0.003721024
      5       17           0.005639281    0.001837279   -0.002174167
 -------------------------------------------------------------------
 Cartesian Forces:  Max     0.010328639 RMS     0.005582126
 FormGI is forming the generalized inverse of G from B-inverse, IUseBI=4.

 GradGradGradGradGradGradGradGradGradGradGradGradGradGradGradGradGradGrad
 Berny optimization.
 Internal  Forces:  Max     0.014334826 RMS     0.005035235
 Search for a local minimum.
 Step number   1 out of a maximum of   24
 All quantities printed in internal units (Hartrees-Bohrs-Radians)
 Mixed Optimization -- RFO/linear search
 Second derivative matrix not updated -- analytic derivatives used.
 The second derivative matrix:
                          R1        R2        R3        R4        A1
           R1           0.34552
           R2           0.03659   0.20653
           R3           0.03658   0.02954   0.20653
           R4           0.03658   0.02954   0.02953   0.20657
           A1           0.00677   0.00652  -0.00385  -0.00901   0.03774
           A2           0.01065  -0.00209   0.01158  -0.01945  -0.01257
           A3           0.02093  -0.01594  -0.01761   0.01392  -0.02449
           A4          -0.00231   0.01158   0.01270  -0.02209  -0.01256
           A5          -0.01646   0.02150  -0.02141   0.01533  -0.02281
           A6          -0.01854  -0.02188   0.01832   0.02090   0.03472
           D1           0.01337   0.01355   0.00991  -0.03595   0.03090
           D2          -0.01124  -0.01099   0.02813  -0.00660  -0.01755
           D3           0.01474  -0.02525   0.01425  -0.00282  -0.00967
           D4           0.02599  -0.01426  -0.01388   0.00377   0.00789
                          A2        A3        A4        A5        A6
           A2           0.07500
           A3          -0.04448   0.14747
           A4           0.00390   0.03532   0.08166
           A5           0.03284  -0.06352  -0.04774   0.15131
           A6          -0.05420  -0.04818  -0.05986  -0.05151   0.17723
           D1           0.03271  -0.03604   0.03551  -0.03612  -0.02623
           D2           0.02297  -0.02236   0.02211  -0.02324   0.01761
           D3           0.03217   0.00708  -0.00923  -0.02925   0.00968
           D4           0.00920   0.02944  -0.03134  -0.00601  -0.00792
                          D1        D2        D3        D4
           D1           0.07870
           D2           0.00573   0.04883
           D3           0.00236   0.02483   0.04930
           D4          -0.00337  -0.02400   0.02447   0.04847
 ITU=  0
     Eigenvalues ---    0.08003   0.09207   0.11453   0.17857   0.21919
     Eigenvalues ---    0.24355   0.26946   0.27799   0.38546
 RFO step:  Lambda=-1.30006926D-03 EMin= 8.00261498D-02
 Linear search not attempted -- first point.
 Iteration  1 RMS(Cart)=  0.02060370 RMS(Int)=  0.00007350
 Iteration  2 RMS(Cart)=  0.00005669 RMS(Int)=  0.00004434
 Iteration  3 RMS(Cart)=  0.00000001 RMS(Int)=  0.00004434
 Variable       Old X    -DE/DX   Delta X   Delta X   Delta X     New X
                                 (Linear)    (Quad)   (Total)
    R1        2.57072  -0.01433   0.00000  -0.04544  -0.04544   2.52528
    R2        3.35408   0.00568   0.00000   0.02581   0.02581   3.37988
    R3        3.35408   0.00568   0.00000   0.02587   0.02587   3.37996
    R4        3.35409   0.00567   0.00000   0.02585   0.02585   3.37994
    A1        1.89818  -0.00100   0.00000  -0.00743  -0.00740   1.89078
    A2        1.89818  -0.00157   0.00000  -0.00749  -0.00747   1.89071
    A3        1.89818  -0.00310   0.00000  -0.00747  -0.00747   1.89071
    A4        1.92292   0.00034   0.00000   0.00733   0.00722   1.93014
    A5        1.92292   0.00244   0.00000   0.00727   0.00720   1.93013
    A6        1.92291   0.00274   0.00000   0.00720   0.00713   1.93005
    D1        2.07897  -0.00198   0.00000  -0.00929  -0.00932   2.06966
    D2       -2.07898   0.00166   0.00000   0.00931   0.00933  -2.06964
    D3        2.07897  -0.00218   0.00000  -0.00942  -0.00946   2.06952
    D4       -2.12523  -0.00384   0.00000  -0.01873  -0.01879  -2.14402
         Item               Value     Threshold  Converged?
 Maximum Force            0.014335     0.000450     NO 
 RMS     Force            0.005035     0.000300     NO 
 Maximum Displacement     0.032928     0.001800     NO 
 RMS     Displacement     0.020624     0.001200     NO 
 Predicted change in Energy=-6.532888D-04
 GradGradGradGradGradGradGradGradGradGradGradGradGradGradGradGradGradGrad

                          Input orientation:                          
 ---------------------------------------------------------------------
 Center     Atomic      Atomic             Coordinates (Angstroms)
 Number     Number       Type             X           Y           Z
 ---------------------------------------------------------------------
      1          6           0        0.917714    0.025083    0.041199
      2          9           0        0.472298    0.837760   -0.921565
      3         17           0        0.304881   -1.623110   -0.285658
      4         17           0        0.304911    0.624152    1.611124
      5         17           0        2.705945    0.048085    0.014030
 ---------------------------------------------------------------------
                    Distance matrix (angstroms):
                    1          2          3          4          5
     1  C    0.000000
     2  F    1.336321   0.000000
     3  Cl   1.788558   2.547212   0.000000
     4  Cl   1.788596   2.547187   2.940743   0.000000
     5  Cl   1.788586   2.547176   2.940717   2.940668   0.000000
 Stoichiometry    CCl3F
 Framework group  C1[X(CCl3F)]
 Deg. of freedom     9
 Full point group                 C1      NOp   1
 Largest Abelian subgroup         C1      NOp   1
 Largest concise Abelian subgroup C1      NOp   1
                         Standard orientation:                         
 ---------------------------------------------------------------------
 Center     Atomic      Atomic             Coordinates (Angstroms)
 Number     Number       Type             X           Y           Z
 ---------------------------------------------------------------------
      1          6           0        0.000042    0.000010    0.252448
      2          9           0       -0.000011   -0.000004    1.588769
      3         17           0        1.672184    0.294042   -0.310070
      4         17           0       -1.090753    1.301092   -0.310071
      5         17           0       -0.581441   -1.595135   -0.310072
 ---------------------------------------------------------------------
 Rotational constants (GHZ):           2.4065690           2.4064657           1.6712122
 Standard basis: 6-31G(d,p) (6D, 7F)
 There are    87 symmetry adapted cartesian basis functions of A   symmetry.
 There are    87 symmetry adapted basis functions of A   symmetry.
    87 basis functions,   212 primitive gaussians,    87 cartesian basis functions
    33 alpha electrons       33 beta electrons
       nuclear repulsion energy       363.2908339518 Hartrees.
 NAtoms=    5 NActive=    5 NUniq=    5 SFac= 1.00D+00 NAtFMM=   60 NAOKFM=F Big=F
 Integral buffers will be    131072 words long.
 Raffenetti 2 integral format.
 Two-electron integral symmetry is turned on.
 One-electron integrals computed using PRISM.
 NBasis=    87 RedAO= T EigKep=  4.48D-03  NBF=    87
 NBsUse=    87 1.00D-06 EigRej= -1.00D+00 NBFU=    87
 Initial guess from the checkpoint file:  "mol_0.chk"
 B after Tr=    -0.000000    0.000000    0.000000
         Rot=    0.958108   -0.000000    0.000002   -0.286407 Ang= -33.29 deg.
 ExpMin= 1.43D-01 ExpMax= 2.52D+04 ExpMxC= 3.78D+03 IAcc=3 IRadAn=         5 AccDes= 0.00D+00
 Harris functional with IExCor=  402 and IRadAn=       5 diagonalized for initial guess.
 HarFok:  IExCor=  402 AccDes= 0.00D+00 IRadAn=         5 IDoV= 1 UseB2=F ITyADJ=14
 ICtDFT=  3500011 ScaDFX=  1.000000  1.000000  1.000000  1.000000
 FoFCou: FMM=F IPFlag=           0 FMFlag=      100000 FMFlg1=           0
         NFxFlg=           0 DoJE=T BraDBF=F KetDBF=T FulRan=T
         wScrn=  0.000000 ICntrl=       500 IOpCl=  0 I1Cent=   200000004 NGrid=           0
         NMat0=    1 NMatS0=      1 NMatT0=    0 NMatD0=    1 NMtDS0=    0 NMtDT0=    0
 Petite list used in FoFCou.
 Keep R1 ints in memory in canonical form, NReq=21889216.
 Requested convergence on RMS density matrix=1.00D-08 within 128 cycles.
 Requested convergence on MAX density matrix=1.00D-06.
 Requested convergence on             energy=1.00D-06.
 No special actions if energy rises.
 Integral accuracy reduced to 1.0D-05 until final iterations.
 Initial convergence to 1.0D-05 achieved.  Increase integral accuracy.
 SCF Done:  E(RB3LYP) =  -1518.50490282     A.U. after   10 cycles
            NFock= 10  Conv=0.96D-08     -V/T= 2.0034
 Calling FoFJK, ICntrl=      2127 FMM=F ISym2X=0 I1Cent= 0 IOpClX= 0 NMat=1 NMatS=1 NMatT=0.
 ***** Axes restored to original set *****
 -------------------------------------------------------------------
 Center     Atomic                   Forces (Hartrees/Bohr)
 Number     Number              X              Y              Z
 -------------------------------------------------------------------
      1        6           0.000353706   -0.000623169    0.000767473
      2        9          -0.000380938    0.000676569   -0.000813531
      3       17          -0.000159261   -0.000296003   -0.000137773
      4       17          -0.000169504    0.000180590    0.000265308
      5       17           0.000355997    0.000062013   -0.000081477
 -------------------------------------------------------------------
 Cartesian Forces:  Max     0.000813531 RMS     0.000429579

 GradGradGradGradGradGradGradGradGradGradGradGradGradGradGradGradGradGrad
 Berny optimization.
 Using GEDIIS/GDIIS optimizer.
 FormGI is forming the generalized inverse of G from B-inverse, IUseBI=4.
 Internal  Forces:  Max     0.001124540 RMS     0.000348339
 Search for a local minimum.
 Step number   2 out of a maximum of   24
 All quantities printed in internal units (Hartrees-Bohrs-Radians)
 Mixed Optimization -- En-DIIS/RFO-DIIS
 Update second derivatives using D2CorX and points    1    2
 DE= -6.47D-04 DEPred=-6.53D-04 R= 9.90D-01
 TightC=F SS=  1.41D+00  RLast= 7.08D-02 DXNew= 5.0454D-01 2.1226D-01
 Trust test= 9.90D-01 RLast= 7.08D-02 DXMaxT set to 3.00D-01
 The second derivative matrix:
                          R1        R2        R3        R4        A1
           R1           0.36946
           R2           0.03636   0.20344
           R3           0.03634   0.02645   0.20345
           R4           0.03643   0.02643   0.02642   0.20344
           A1           0.00718   0.00693  -0.00343  -0.00859   0.03769
           A2           0.01124  -0.00142   0.01225  -0.01876  -0.01265
           A3           0.02204  -0.01459  -0.01627   0.01528  -0.02466
           A4          -0.00261   0.01150   0.01262  -0.02217  -0.01256
           A5          -0.01746   0.02047  -0.02243   0.01429  -0.02269
           A6          -0.01935  -0.02313   0.01707   0.01964   0.03487
           D1           0.01406   0.01441   0.01077  -0.03508   0.03079
           D2          -0.01184  -0.01171   0.02741  -0.00732  -0.01746
           D3           0.01565  -0.02434   0.01516  -0.00191  -0.00977
           D4           0.02749  -0.01263  -0.01226   0.00542   0.00769
                          A2        A3        A4        A5        A6
           A2           0.07487
           A3          -0.04476   0.14692
           A4           0.00392   0.03534   0.08166
           A5           0.03304  -0.06311  -0.04776   0.15100
           A6          -0.05395  -0.04767  -0.05989  -0.05190   0.17674
           D1           0.03254  -0.03639   0.03553  -0.03586  -0.02590
           D2           0.02312  -0.02207   0.02210  -0.02346   0.01733
           D3           0.03200   0.00672  -0.00921  -0.02898   0.01003
           D4           0.00888   0.02879  -0.03131  -0.00553  -0.00731
                          D1        D2        D3        D4
           D1           0.07848
           D2           0.00591   0.04867
           D3           0.00212   0.02502   0.04906
           D4          -0.00379  -0.02365   0.02404   0.04769
 ITU=  1  0
 Use linear search instead of GDIIS.
     Eigenvalues ---    0.07993   0.09170   0.11453   0.17861   0.21950
     Eigenvalues ---    0.24335   0.26472   0.27558   0.40459
 RFO step:  Lambda=-4.95137378D-06 EMin= 7.99318798D-02
 Quartic linear search produced a step of -0.01246.
 Iteration  1 RMS(Cart)=  0.00095799 RMS(Int)=  0.00000044
 Iteration  2 RMS(Cart)=  0.00000041 RMS(Int)=  0.00000009
 Variable       Old X    -DE/DX   Delta X   Delta X   Delta X     New X
                                 (Linear)    (Quad)   (Total)
    R1        2.52528   0.00112   0.00057   0.00264   0.00321   2.52849
    R2        3.37988   0.00035  -0.00032   0.00114   0.00082   3.38070
    R3        3.37996   0.00035  -0.00032   0.00108   0.00076   3.38071
    R4        3.37994   0.00036  -0.00032   0.00113   0.00081   3.38074
    A1        1.89078  -0.00003   0.00009  -0.00088  -0.00079   1.88998
    A2        1.89071  -0.00005   0.00009  -0.00083  -0.00073   1.88998
    A3        1.89071  -0.00010   0.00009  -0.00084  -0.00074   1.88996
    A4        1.93014   0.00000  -0.00009   0.00079   0.00070   1.93085
    A5        1.93013   0.00007  -0.00009   0.00077   0.00068   1.93081
    A6        1.93005   0.00010  -0.00009   0.00088   0.00079   1.93084
    D1        2.06966  -0.00007   0.00012  -0.00112  -0.00100   2.06865
    D2       -2.06964   0.00006  -0.00012   0.00114   0.00102  -2.06862
    D3        2.06952  -0.00006   0.00012  -0.00101  -0.00089   2.06863
    D4       -2.14402  -0.00013   0.00023  -0.00214  -0.00191  -2.14593
         Item               Value     Threshold  Converged?
 Maximum Force            0.001125     0.000450     NO 
 RMS     Force            0.000348     0.000300     NO 
 Maximum Displacement     0.001445     0.001800     YES
 RMS     Displacement     0.000958     0.001200     YES
 Predicted change in Energy=-2.577024D-06
 GradGradGradGradGradGradGradGradGradGradGradGradGradGradGradGradGradGrad

                          Input orientation:                          
 ---------------------------------------------------------------------
 Center     Atomic      Atomic             Coordinates (Angstroms)
 Number     Number       Type             X           Y           Z
 ---------------------------------------------------------------------
      1          6           0        0.918066    0.024485    0.041964
      2          9           0        0.472070    0.838159   -0.922048
      3         17           0        0.304467   -1.623655   -0.286094
      4         17           0        0.304451    0.624672    1.611601
      5         17           0        2.706696    0.048309    0.013707
 ---------------------------------------------------------------------
                    Distance matrix (angstroms):
                    1          2          3          4          5
     1  C    0.000000
     2  F    1.338020   0.000000
     3  Cl   1.788992   2.548148   0.000000
     4  Cl   1.788996   2.548146   2.942145   0.000000
     5  Cl   1.789012   2.548148   2.942117   2.942148   0.000000
 Stoichiometry    CCl3F
 Framework group  C1[X(CCl3F)]
 Deg. of freedom     9
 Full point group                 C1      NOp   1
 Largest Abelian subgroup         C1      NOp   1
 Largest concise Abelian subgroup C1      NOp   1
                         Standard orientation:                         
 ---------------------------------------------------------------------
 Center     Atomic      Atomic             Coordinates (Angstroms)
 Number     Number       Type             X           Y           Z
 ---------------------------------------------------------------------
      1          6           0       -0.000014    0.000010    0.251325
      2          9           0       -0.000019   -0.000003    1.589345
      3         17           0        0.784155    1.506809   -0.310036
      4         17           0       -1.697024   -0.074321   -0.310049
      5         17           0        0.912884   -1.432490   -0.310036
 ---------------------------------------------------------------------
 Rotational constants (GHZ):           2.4045626           2.4045148           1.6695909
 Standard basis: 6-31G(d,p) (6D, 7F)
 There are    87 symmetry adapted cartesian basis functions of A   symmetry.
 There are    87 symmetry adapted basis functions of A   symmetry.
    87 basis functions,   212 primitive gaussians,    87 cartesian basis functions
    33 alpha electrons       33 beta electrons
       nuclear repulsion energy       363.1309665669 Hartrees.
 NAtoms=    5 NActive=    5 NUniq=    5 SFac= 1.00D+00 NAtFMM=   60 NAOKFM=F Big=F
 Integral buffers will be    131072 words long.
 Raffenetti 2 integral format.
 Two-electron integral symmetry is turned on.
 One-electron integrals computed using PRISM.
 NBasis=    87 RedAO= T EigKep=  4.50D-03  NBF=    87
 NBsUse=    87 1.00D-06 EigRej= -1.00D+00 NBFU=    87
 Initial guess from the checkpoint file:  "mol_0.chk"
 B after Tr=    -0.000000    0.000000   -0.000000
         Rot=    0.896740    0.000002    0.000003   -0.442557 Ang=  52.53 deg.
 Keep R1 ints in memory in canonical form, NReq=21889216.
 Requested convergence on RMS density matrix=1.00D-08 within 128 cycles.
 Requested convergence on MAX density matrix=1.00D-06.
 Requested convergence on             energy=1.00D-06.
 No special actions if energy rises.
 SCF Done:  E(RB3LYP) =  -1518.50490415     A.U. after    8 cycles
            NFock=  8  Conv=0.30D-08     -V/T= 2.0034
 Calling FoFJK, ICntrl=      2127 FMM=F ISym2X=0 I1Cent= 0 IOpClX= 0 NMat=1 NMatS=1 NMatT=0.
 ***** Axes restored to original set *****
 -------------------------------------------------------------------
 Center     Atomic                   Forces (Hartrees/Bohr)
 Number     Number              X              Y              Z
 -------------------------------------------------------------------
      1        6          -0.000020477    0.000058664   -0.000061176
      2        9           0.000033219   -0.000060829    0.000073463
      3       17          -0.000007032   -0.000003482   -0.000007717
      4       17          -0.000001601    0.000002100   -0.000002041
      5       17          -0.000004109    0.000003547   -0.000002529
 -------------------------------------------------------------------
 Cartesian Forces:  Max     0.000073463 RMS     0.000034614

 GradGradGradGradGradGradGradGradGradGradGradGradGradGradGradGradGradGrad
 Berny optimization.
 Using GEDIIS/GDIIS optimizer.
 FormGI is forming the generalized inverse of G from B-inverse, IUseBI=4.
 Internal  Forces:  Max     0.000100992 RMS     0.000027353
 Search for a local minimum.
 Step number   3 out of a maximum of   24
 All quantities printed in internal units (Hartrees-Bohrs-Radians)
 Mixed Optimization -- En-DIIS/RFO-DIIS
 Swapping is turned off.
 Update second derivatives using D2CorX and points    1    2    3
 DE= -1.32D-06 DEPred=-2.58D-06 R= 5.13D-01
 TightC=F SS=  1.41D+00  RLast= 4.69D-03 DXNew= 5.0454D-01 1.4065D-02
 Trust test= 5.13D-01 RLast= 4.69D-03 DXMaxT set to 3.00D-01
 The second derivative matrix:
                          R1        R2        R3        R4        A1
           R1           0.40166
           R2           0.03738   0.20085
           R3           0.03902   0.02439   0.20193
           R4           0.03991   0.02457   0.02512   0.20236
           A1           0.00782   0.00742  -0.00300  -0.00817   0.03762
           A2           0.01151  -0.00088   0.01270  -0.01834  -0.01274
           A3           0.02246  -0.01363  -0.01546   0.01604  -0.02482
           A4          -0.00316   0.01127   0.01240  -0.02239  -0.01253
           A5          -0.01881   0.01945  -0.02335   0.01341  -0.02254
           A6          -0.01936  -0.02400   0.01636   0.01899   0.03503
           D1           0.01471   0.01521   0.01145  -0.03443   0.03067
           D2          -0.01196  -0.01225   0.02697  -0.00774  -0.01737
           D3           0.01605  -0.02368   0.01572  -0.00138  -0.00988
           D4           0.02802  -0.01143  -0.01125   0.00635   0.00749
                          A2        A3        A4        A5        A6
           A2           0.07476
           A3          -0.04494   0.14659
           A4           0.00395   0.03541   0.08165
           A5           0.03323  -0.06277  -0.04781   0.15069
           A6          -0.05377  -0.04735  -0.05996  -0.05223   0.17646
           D1           0.03239  -0.03666   0.03558  -0.03560  -0.02565
           D2           0.02322  -0.02188   0.02206  -0.02365   0.01716
           D3           0.03187   0.00649  -0.00917  -0.02876   0.01024
           D4           0.00865   0.02837  -0.03123  -0.00510  -0.00692
                          D1        D2        D3        D4
           D1           0.07826
           D2           0.00607   0.04856
           D3           0.00194   0.02515   0.04891
           D4          -0.00413  -0.02341   0.02376   0.04717
 ITU=  1  1  0
     Eigenvalues ---    0.07971   0.09178   0.11446   0.17859   0.21905
     Eigenvalues ---    0.24309   0.26064   0.27534   0.43474
 En-DIIS/RFO-DIIS/Sim-DIIS IScMMF=       -3 using points:     3    2
 RFO step:  Lambda=-2.72971621D-08.
 DidBck=F Rises=F RFO-DIIS coefs:    0.96455    0.03545
 Iteration  1 RMS(Cart)=  0.00006335 RMS(Int)=  0.00000002
 Iteration  2 RMS(Cart)=  0.00000000 RMS(Int)=  0.00000002
 Variable       Old X    -DE/DX   Delta X   Delta X   Delta X     New X
                                 (Linear)    (Quad)   (Total)
    R1        2.52849  -0.00010  -0.00011  -0.00015  -0.00027   2.52823
    R2        3.38070   0.00001  -0.00003   0.00011   0.00008   3.38079
    R3        3.38071  -0.00000  -0.00003   0.00007   0.00004   3.38075
    R4        3.38074  -0.00000  -0.00003   0.00004   0.00001   3.38075
    A1        1.88998  -0.00000   0.00003  -0.00004  -0.00001   1.88997
    A2        1.88998  -0.00000   0.00003  -0.00002   0.00001   1.88998
    A3        1.88996  -0.00001   0.00003  -0.00001   0.00001   1.88998
    A4        1.93085   0.00000  -0.00002   0.00001  -0.00001   1.93084
    A5        1.93081   0.00001  -0.00002   0.00003   0.00001   1.93082
    A6        1.93084   0.00000  -0.00003   0.00002  -0.00000   1.93083
    D1        2.06865  -0.00001   0.00004  -0.00005  -0.00002   2.06864
    D2       -2.06862   0.00000  -0.00004   0.00004   0.00000  -2.06862
    D3        2.06863  -0.00000   0.00003  -0.00002   0.00002   2.06865
    D4       -2.14593  -0.00001   0.00007  -0.00005   0.00001  -2.14592
         Item               Value     Threshold  Converged?
 Maximum Force            0.000101     0.000450     YES
 RMS     Force            0.000027     0.000300     YES
 Maximum Displacement     0.000137     0.001800     YES
 RMS     Displacement     0.000063     0.001200     YES
 Predicted change in Energy=-1.364858D-08
 Optimization completed.
    -- Stationary point found.
                           ----------------------------
                           !   Optimized Parameters   !
                           ! (Angstroms and Degrees)  !
 --------------------------                            --------------------------
 ! Name  Definition              Value          Derivative Info.                !
 --------------------------------------------------------------------------------
 ! R1    R(1,2)                  1.338          -DE/DX =   -0.0001              !
 ! R2    R(1,3)                  1.789          -DE/DX =    0.0                 !
 ! R3    R(1,4)                  1.789          -DE/DX =    0.0                 !
 ! R4    R(1,5)                  1.789          -DE/DX =    0.0                 !
 ! A1    A(2,1,3)              108.2881         -DE/DX =    0.0                 !
 ! A2    A(2,1,4)              108.2877         -DE/DX =    0.0                 !
 ! A3    A(2,1,5)              108.287          -DE/DX =    0.0                 !
 ! A4    A(3,1,4)              110.6295         -DE/DX =    0.0                 !
 ! A5    A(3,1,5)              110.6271         -DE/DX =    0.0                 !
 ! A6    A(4,1,5)              110.6287         -DE/DX =    0.0                 !
 ! D1    D(2,1,4,3)            118.5252         -DE/DX =    0.0                 !
 ! D2    D(2,1,5,3)           -118.5234         -DE/DX =    0.0                 !
 ! D3    D(2,1,5,4)            118.5238         -DE/DX =    0.0                 !
 ! D4    D(3,1,5,4)           -122.9528         -DE/DX =    0.0                 !
 --------------------------------------------------------------------------------
 GradGradGradGradGradGradGradGradGradGradGradGradGradGradGradGradGradGrad

                          Input orientation:                          
 ---------------------------------------------------------------------
 Center     Atomic      Atomic             Coordinates (Angstroms)
 Number     Number       Type             X           Y           Z
 ---------------------------------------------------------------------
      1          6           0        0.918066    0.024485    0.041964
      2          9           0        0.472070    0.838159   -0.922048
      3         17           0        0.304467   -1.623655   -0.286094
      4         17           0        0.304451    0.624672    1.611601
      5         17           0        2.706696    0.048309    0.013707
 ---------------------------------------------------------------------
                    Distance matrix (angstroms):
                    1          2          3          4          5
     1  C    0.000000
     2  F    1.338020   0.000000
     3  Cl   1.788992   2.548148   0.000000
     4  Cl   1.788996   2.548146   2.942145   0.000000
     5  Cl   1.789012   2.548148   2.942117   2.942148   0.000000
 Stoichiometry    CCl3F
 Framework group  C1[X(CCl3F)]
 Deg. of freedom     9
 Full point group                 C1      NOp   1
 Largest Abelian subgroup         C1      NOp   1
 Largest concise Abelian subgroup C1      NOp   1
                         Standard orientation:                         
 ---------------------------------------------------------------------
 Center     Atomic      Atomic             Coordinates (Angstroms)
 Number     Number       Type             X           Y           Z
 ---------------------------------------------------------------------
      1          6           0       -0.000014    0.000010    0.251325
      2          9           0       -0.000019   -0.000003    1.589345
      3         17           0        0.784155    1.506809   -0.310036
      4         17           0       -1.697024   -0.074321   -0.310049
      5         17           0        0.912884   -1.432490   -0.310036
 ---------------------------------------------------------------------
 Rotational constants (GHZ):           2.4045626           2.4045148           1.6695909

 **********************************************************************

            Population analysis using the SCF Density.

 **********************************************************************

 Orbital symmetries:
       Occupied  (A) (A) (A) (A) (A) (A) (A) (A) (A) (A) (A) (A)
                 (A) (A) (A) (A) (A) (A) (A) (A) (A) (A) (A) (A)
                 (A) (A) (A) (A) (A) (A) (A) (A) (A)
       Virtual   (A) (A) (A) (A) (A) (A) (A) (A) (A) (A) (A) (A)
                 (A) (A) (A) (A) (A) (A) (A) (A) (A) (A) (A) (A)
                 (A) (A) (A) (A) (A) (A) (A) (A) (A) (A) (A) (A)
                 (A) (A) (A) (A) (A) (A) (A) (A) (A) (A) (A) (A)
                 (A) (A) (A) (A) (A) (A)
 The electronic state is 1-A.
 Alpha  occ. eigenvalues -- -101.58316-101.58316-101.58315 -24.76262 -10.45898
 Alpha  occ. eigenvalues --   -9.50075  -9.50075  -9.50073  -7.26550  -7.26548
 Alpha  occ. eigenvalues --   -7.26547  -7.25426  -7.25426  -7.25425  -7.25418
 Alpha  occ. eigenvalues --   -7.25417  -7.25417  -1.28851  -0.94604  -0.86189
 Alpha  occ. eigenvalues --   -0.86189  -0.67146  -0.56140  -0.54763  -0.54763
 Alpha  occ. eigenvalues --   -0.43114  -0.43114  -0.37588  -0.36556  -0.36555
 Alpha  occ. eigenvalues --   -0.33765  -0.33765  -0.32442
 Alpha virt. eigenvalues --   -0.06438  -0.00330  -0.00329   0.09525   0.26304
 Alpha virt. eigenvalues --    0.35022   0.35022   0.38596   0.39175   0.39176
 Alpha virt. eigenvalues --    0.40745   0.45798   0.45798   0.47926   0.48087
 Alpha virt. eigenvalues --    0.48088   0.49617   0.57133   0.57133   0.74605
 Alpha virt. eigenvalues --    0.74605   0.82184   0.83134   0.83765   0.83765
 Alpha virt. eigenvalues --    0.84229   0.84229   0.87016   0.90234   0.99963
 Alpha virt. eigenvalues --    0.99963   1.00622   1.06071   1.06072   1.18721
 Alpha virt. eigenvalues --    1.28238   1.34681   1.34681   1.51152   1.51152
 Alpha virt. eigenvalues --    1.81215   1.81215   1.95361   2.03767   2.04760
 Alpha virt. eigenvalues --    2.04761   2.41214   2.41214   2.98872   3.94632
 Alpha virt. eigenvalues --    4.24881   4.24882   4.29709   4.34400
          Condensed to atoms (all electrons):
               1          2          3          4          5
     1  C    5.058373   0.195092   0.243805   0.243804   0.243802
     2  F    0.195092   9.121704  -0.040772  -0.040772  -0.040772
     3  Cl   0.243805  -0.040772  16.888032  -0.075425  -0.075431
     4  Cl   0.243804  -0.040772  -0.075425  16.888029  -0.075426
     5  Cl   0.243802  -0.040772  -0.075431  -0.075426  16.888052
 Mulliken charges:
               1
     1  C    0.015124
     2  F   -0.194480
     3  Cl   0.059791
     4  Cl   0.059789
     5  Cl   0.059775
 Sum of Mulliken charges =  -0.00000
 Mulliken charges with hydrogens summed into heavy atoms:
               1
     1  C    0.015124
     2  F   -0.194480
     3  Cl   0.059791
     4  Cl   0.059789
     5  Cl   0.059775
 Electronic spatial extent (au):  <R**2>=            731.2451
 Charge=             -0.0000 electrons
 Dipole moment (field-independent basis, Debye):
    X=             -0.0001    Y=              0.0001    Z=             -0.1709  Tot=              0.1709
 Quadrupole moment (field-independent basis, Debye-Ang):
   XX=            -46.9861   YY=            -46.9863   ZZ=            -48.1981
   XY=              0.0001   XZ=              0.0000   YZ=             -0.0000
 Traceless Quadrupole moment (field-independent basis, Debye-Ang):
   XX=              0.4041   YY=              0.4039   ZZ=             -0.8079
   XY=              0.0001   XZ=              0.0000   YZ=             -0.0000
 Octapole moment (field-independent basis, Debye-Ang**2):
  XXX=             -4.0821  YYY=              0.5394  ZZZ=              8.0917  XYY=              4.0818
  XXY=             -0.5389  XXZ=              0.7005  XZZ=             -0.0001  YZZ=              0.0001
  YYZ=              0.7007  XYZ=             -0.0001
 Hexadecapole moment (field-independent basis, Debye-Ang**3):
 XXXX=           -350.8131 YYYY=           -350.8064 ZZZZ=           -141.0640 XXXY=              0.0004
 XXXZ=              4.8413 YYYX=              0.0004 YYYZ=             -0.6395 ZZZX=             -0.0001
 ZZZY=             -0.0002 XXYY=           -116.9362 XXZZ=            -83.8193 YYZZ=            -83.8181
 XXYZ=              0.6393 YYXZ=             -4.8414 ZZXY=              0.0001
 N-N= 3.631309665669D+02 E-N=-4.332887716652D+03  KE= 1.513398940854D+03
 Unable to Open any file for archive entry.
 1\1\GINC-HELIUM\FOpt\RB3LYP\6-31G(d,p)\C1Cl3F1\YCW79\01-Feb-2023\0\\# 
 opt=calcfc freq b3lyp/6-31g(d,p)\\test\\0,1\C,0.9180660217,0.024484955
 3,0.0419636575\F,0.4720695222,0.8381594716,-0.9220477044\Cl,0.30446687
 63,-1.6236553276,-0.2860936896\Cl,0.3044514234,0.6246720743,1.61160057
 57\Cl,2.7066961565,0.0483088264,0.0137071608\\Version=ES64L-G16RevC.01
 \State=1-A\HF=-1518.5049041\RMSD=3.031e-09\RMSF=3.461e-05\Dipole=0.022
 3726,-0.0409102,0.0484687\Quadrupole=0.2001189,-0.032799,-0.1673199,0.
 1826097,-0.2163932,0.3948159\PG=C01 [X(C1Cl3F1)]\\@
 The archive entry for this job was punched.


 WOMEN HOLD UP HALF THE SKY. -- MAO TSE TUNG
 Job cpu time:       0 days  0 hours  1 minutes 44.9 seconds.
 Elapsed time:       0 days  0 hours  0 minutes  6.8 seconds.
 File lengths (MBytes):  RWF=     11 Int=      0 D2E=      0 Chk=      2 Scr=      1
 Normal termination of Gaussian 16 at Wed Feb  1 14:07:45 2023.
 Link1:  Proceeding to internal job step number  2.
 ----------------------------------------------------------------------
 #N Geom=AllCheck Guess=TCheck SCRF=Check GenChk RB3LYP/6-31G(d,p) Freq
 ----------------------------------------------------------------------
 1/10=4,29=7,30=1,38=1,40=1/1,3;
 2/12=2,40=1/2;
 3/5=1,6=6,7=101,11=2,14=-4,25=1,30=1,70=2,71=2,74=-5,116=1,140=1/1,2,3;
 4/5=101/1;
 5/5=2,38=6,98=1/2;
 8/6=4,10=90,11=11/1;
 11/6=1,8=1,9=11,15=111,16=1/1,2,10;
 10/6=1/2;
 6/7=2,8=2,9=2,10=2,28=1/1;
 7/8=1,10=1,25=1/1,2,3,16;
 1/10=4,30=1/3;
 99//99;
 Structure from the checkpoint file:  "mol_0.chk"
 ----
 test
 ----
 Charge =  0 Multiplicity = 1
 Redundant internal coordinates found in file.  (old form).
 C,0,0.9180660217,0.0244849553,0.0419636575
 F,0,0.4720695222,0.8381594716,-0.9220477044
 Cl,0,0.3044668763,-1.6236553276,-0.2860936896
 Cl,0,0.3044514234,0.6246720743,1.6116005757
 Cl,0,2.7066961565,0.0483088264,0.0137071608
 Recover connectivity data from disk.

 GradGradGradGradGradGradGradGradGradGradGradGradGradGradGradGradGradGrad
 Berny optimization.
 Initialization pass.
                           ----------------------------
                           !    Initial Parameters    !
                           ! (Angstroms and Degrees)  !
 --------------------------                            --------------------------
 ! Name  Definition              Value          Derivative Info.                !
 --------------------------------------------------------------------------------
 ! R1    R(1,2)                  1.338          calculate D2E/DX2 analytically  !
 ! R2    R(1,3)                  1.789          calculate D2E/DX2 analytically  !
 ! R3    R(1,4)                  1.789          calculate D2E/DX2 analytically  !
 ! R4    R(1,5)                  1.789          calculate D2E/DX2 analytically  !
 ! A1    A(2,1,3)              108.2881         calculate D2E/DX2 analytically  !
 ! A2    A(2,1,4)              108.2877         calculate D2E/DX2 analytically  !
 ! A3    A(2,1,5)              108.287          calculate D2E/DX2 analytically  !
 ! A4    A(3,1,4)              110.6295         calculate D2E/DX2 analytically  !
 ! A5    A(3,1,5)              110.6271         calculate D2E/DX2 analytically  !
 ! A6    A(4,1,5)              110.6287         calculate D2E/DX2 analytically  !
 ! D1    D(2,1,4,3)            118.5252         calculate D2E/DX2 analytically  !
 ! D2    D(2,1,5,3)           -118.5234         calculate D2E/DX2 analytically  !
 ! D3    D(2,1,5,4)            118.5238         calculate D2E/DX2 analytically  !
 ! D4    D(3,1,5,4)           -122.9528         calculate D2E/DX2 analytically  !
 --------------------------------------------------------------------------------
 Trust Radius=3.00D-01 FncErr=1.00D-07 GrdErr=1.00D-07 EigMax=2.50D+02 EigMin=1.00D-04
 Number of steps in this run=      2 maximum allowed number of steps=      2.
 GradGradGradGradGradGradGradGradGradGradGradGradGradGradGradGradGradGrad

                          Input orientation:                          
 ---------------------------------------------------------------------
 Center     Atomic      Atomic             Coordinates (Angstroms)
 Number     Number       Type             X           Y           Z
 ---------------------------------------------------------------------
      1          6           0        0.918066    0.024485    0.041964
      2          9           0        0.472070    0.838159   -0.922048
      3         17           0        0.304467   -1.623655   -0.286094
      4         17           0        0.304451    0.624672    1.611601
      5         17           0        2.706696    0.048309    0.013707
 ---------------------------------------------------------------------
                    Distance matrix (angstroms):
                    1          2          3          4          5
     1  C    0.000000
     2  F    1.338020   0.000000
     3  Cl   1.788992   2.548148   0.000000
     4  Cl   1.788996   2.548146   2.942145   0.000000
     5  Cl   1.789012   2.548148   2.942117   2.942148   0.000000
 Stoichiometry    CCl3F
 Framework group  C1[X(CCl3F)]
 Deg. of freedom     9
 Full point group                 C1      NOp   1
 Largest Abelian subgroup         C1      NOp   1
 Largest concise Abelian subgroup C1      NOp   1
                         Standard orientation:                         
 ---------------------------------------------------------------------
 Center     Atomic      Atomic             Coordinates (Angstroms)
 Number     Number       Type             X           Y           Z
 ---------------------------------------------------------------------
      1          6           0       -0.000014    0.000010    0.251325
      2          9           0       -0.000019   -0.000003    1.589345
      3         17           0        0.784155    1.506809   -0.310036
      4         17           0       -1.697024   -0.074321   -0.310049
      5         17           0        0.912884   -1.432490   -0.310036
 ---------------------------------------------------------------------
 Rotational constants (GHZ):           2.4045626           2.4045148           1.6695909
 Standard basis: 6-31G(d,p) (6D, 7F)
 There are    87 symmetry adapted cartesian basis functions of A   symmetry.
 There are    87 symmetry adapted basis functions of A   symmetry.
    87 basis functions,   212 primitive gaussians,    87 cartesian basis functions
    33 alpha electrons       33 beta electrons
       nuclear repulsion energy       363.1309665669 Hartrees.
 NAtoms=    5 NActive=    5 NUniq=    5 SFac= 1.00D+00 NAtFMM=   60 NAOKFM=F Big=F
 Integral buffers will be    131072 words long.
 Raffenetti 2 integral format.
 Two-electron integral symmetry is turned on.
 One-electron integrals computed using PRISM.
 NBasis=    87 RedAO= T EigKep=  4.50D-03  NBF=    87
 NBsUse=    87 1.00D-06 EigRej= -1.00D+00 NBFU=    87
 Initial guess from the checkpoint file:  "mol_0.chk"
 B after Tr=    -0.000000    0.000000    0.000000
         Rot=    1.000000   -0.000000   -0.000000    0.000000 Ang=   0.00 deg.
 Keep R1 ints in memory in canonical form, NReq=21889216.
 Requested convergence on RMS density matrix=1.00D-08 within 128 cycles.
 Requested convergence on MAX density matrix=1.00D-06.
 Requested convergence on             energy=1.00D-06.
 No special actions if energy rises.
 SCF Done:  E(RB3LYP) =  -1518.50490415     A.U. after    1 cycles
            NFock=  1  Conv=0.75D-09     -V/T= 2.0034
 DoSCS=F DFT=T ScalE2(SS,OS)=  1.000000  1.000000
 Range of M.O.s used for correlation:     1    87
 NBasis=    87 NAE=    33 NBE=    33 NFC=     0 NFV=     0
 NROrb=     87 NOA=    33 NOB=    33 NVA=    54 NVB=    54
 Symmetrizing basis deriv contribution to polar:
 IMax=3 JMax=2 DiffMx= 0.00D+00
 G2DrvN: will do     6 centers at a time, making    1 passes.
 Calling FoFCou, ICntrl=  3107 FMM=F I1Cent=   0 AccDes= 0.00D+00.
 End of G2Drv F.D. properties file   721 does not exist.
 End of G2Drv F.D. properties file   722 does not exist.
 End of G2Drv F.D. properties file   788 does not exist.
          IDoAtm=11111
          Differentiating once with respect to electric field.
                with respect to dipole field.
          Differentiating once with respect to nuclear coordinates.
 Keep R1 ints in memory in canonical form, NReq=21837792.
          There are    18 degrees of freedom in the 1st order CPHF.  IDoFFX=6 NUNeed=     3.
     15 vectors produced by pass  0 Test12= 9.90D-15 5.56D-09 XBig12= 3.60D+01 2.46D+00.
 AX will form    15 AO Fock derivatives at one time.
     15 vectors produced by pass  1 Test12= 9.90D-15 5.56D-09 XBig12= 4.29D+00 6.01D-01.
     15 vectors produced by pass  2 Test12= 9.90D-15 5.56D-09 XBig12= 9.50D-02 7.03D-02.
     15 vectors produced by pass  3 Test12= 9.90D-15 5.56D-09 XBig12= 2.25D-03 9.44D-03.
     15 vectors produced by pass  4 Test12= 9.90D-15 5.56D-09 XBig12= 1.80D-05 1.53D-03.
     15 vectors produced by pass  5 Test12= 9.90D-15 5.56D-09 XBig12= 4.98D-08 4.45D-05.
      7 vectors produced by pass  6 Test12= 9.90D-15 5.56D-09 XBig12= 1.11D-10 4.10D-06.
      3 vectors produced by pass  7 Test12= 9.90D-15 5.56D-09 XBig12= 1.58D-13 1.01D-07.
 InvSVY:  IOpt=1 It=  1 EMax= 1.55D-15
 Solved reduced A of dimension   100 with    15 vectors.
 Isotropic polarizability for W=    0.000000       40.94 Bohr**3.
 End of Minotr F.D. properties file   721 does not exist.
 End of Minotr F.D. properties file   722 does not exist.
 End of Minotr F.D. properties file   788 does not exist.

 **********************************************************************

            Population analysis using the SCF Density.

 **********************************************************************

 Orbital symmetries:
       Occupied  (A) (A) (A) (A) (A) (A) (A) (A) (A) (A) (A) (A)
                 (A) (A) (A) (A) (A) (A) (A) (A) (A) (A) (A) (A)
                 (A) (A) (A) (A) (A) (A) (A) (A) (A)
       Virtual   (A) (A) (A) (A) (A) (A) (A) (A) (A) (A) (A) (A)
                 (A) (A) (A) (A) (A) (A) (A) (A) (A) (A) (A) (A)
                 (A) (A) (A) (A) (A) (A) (A) (A) (A) (A) (A) (A)
                 (A) (A) (A) (A) (A) (A) (A) (A) (A) (A) (A) (A)
                 (A) (A) (A) (A) (A) (A)
 The electronic state is 1-A.
 Alpha  occ. eigenvalues -- -101.58316-101.58316-101.58315 -24.76262 -10.45898
 Alpha  occ. eigenvalues --   -9.50075  -9.50075  -9.50073  -7.26550  -7.26548
 Alpha  occ. eigenvalues --   -7.26547  -7.25426  -7.25426  -7.25425  -7.25418
 Alpha  occ. eigenvalues --   -7.25417  -7.25417  -1.28851  -0.94604  -0.86189
 Alpha  occ. eigenvalues --   -0.86189  -0.67146  -0.56140  -0.54763  -0.54763
 Alpha  occ. eigenvalues --   -0.43114  -0.43114  -0.37588  -0.36556  -0.36555
 Alpha  occ. eigenvalues --   -0.33765  -0.33765  -0.32442
 Alpha virt. eigenvalues --   -0.06438  -0.00330  -0.00329   0.09525   0.26304
 Alpha virt. eigenvalues --    0.35022   0.35022   0.38596   0.39175   0.39176
 Alpha virt. eigenvalues --    0.40745   0.45798   0.45798   0.47926   0.48087
 Alpha virt. eigenvalues --    0.48088   0.49617   0.57133   0.57133   0.74605
 Alpha virt. eigenvalues --    0.74605   0.82184   0.83134   0.83765   0.83765
 Alpha virt. eigenvalues --    0.84229   0.84229   0.87016   0.90234   0.99963
 Alpha virt. eigenvalues --    0.99963   1.00622   1.06071   1.06072   1.18721
 Alpha virt. eigenvalues --    1.28238   1.34681   1.34681   1.51152   1.51152
 Alpha virt. eigenvalues --    1.81215   1.81215   1.95361   2.03767   2.04760
 Alpha virt. eigenvalues --    2.04761   2.41214   2.41214   2.98872   3.94632
 Alpha virt. eigenvalues --    4.24881   4.24882   4.29709   4.34400
          Condensed to atoms (all electrons):
               1          2          3          4          5
     1  C    5.058373   0.195092   0.243805   0.243804   0.243802
     2  F    0.195092   9.121704  -0.040772  -0.040772  -0.040772
     3  Cl   0.243805  -0.040772  16.888032  -0.075425  -0.075431
     4  Cl   0.243804  -0.040772  -0.075425  16.888029  -0.075426
     5  Cl   0.243802  -0.040772  -0.075431  -0.075426  16.888052
 Mulliken charges:
               1
     1  C    0.015124
     2  F   -0.194480
     3  Cl   0.059791
     4  Cl   0.059789
     5  Cl   0.059775
 Sum of Mulliken charges =  -0.00000
 Mulliken charges with hydrogens summed into heavy atoms:
               1
     1  C    0.015124
     2  F   -0.194480
     3  Cl   0.059791
     4  Cl   0.059789
     5  Cl   0.059775
 APT charges:
               1
     1  C    1.684623
     2  F   -0.576256
     3  Cl  -0.369449
     4  Cl  -0.369446
     5  Cl  -0.369473
 Sum of APT charges =  -0.00000
 APT charges with hydrogens summed into heavy atoms:
               1
     1  C    1.684623
     2  F   -0.576256
     3  Cl  -0.369449
     4  Cl  -0.369446
     5  Cl  -0.369473
 Electronic spatial extent (au):  <R**2>=            731.2451
 Charge=              0.0000 electrons
 Dipole moment (field-independent basis, Debye):
    X=             -0.0001    Y=              0.0001    Z=             -0.1709  Tot=              0.1709
 Quadrupole moment (field-independent basis, Debye-Ang):
   XX=            -46.9861   YY=            -46.9863   ZZ=            -48.1981
   XY=              0.0001   XZ=              0.0000   YZ=             -0.0000
 Traceless Quadrupole moment (field-independent basis, Debye-Ang):
   XX=              0.4041   YY=              0.4039   ZZ=             -0.8079
   XY=              0.0001   XZ=              0.0000   YZ=             -0.0000
 Octapole moment (field-independent basis, Debye-Ang**2):
  XXX=             -4.0821  YYY=              0.5394  ZZZ=              8.0917  XYY=              4.0818
  XXY=             -0.5389  XXZ=              0.7005  XZZ=             -0.0001  YZZ=              0.0001
  YYZ=              0.7007  XYZ=             -0.0001
 Hexadecapole moment (field-independent basis, Debye-Ang**3):
 XXXX=           -350.8131 YYYY=           -350.8064 ZZZZ=           -141.0640 XXXY=              0.0004
 XXXZ=              4.8413 YYYX=              0.0004 YYYZ=             -0.6395 ZZZX=             -0.0001
 ZZZY=             -0.0002 XXYY=           -116.9362 XXZZ=            -83.8193 YYZZ=            -83.8181
 XXYZ=              0.6393 YYXZ=             -4.8414 ZZXY=              0.0001
 N-N= 3.631309665669D+02 E-N=-4.332887715580D+03  KE= 1.513398940452D+03
  Exact polarizability:      46.784      -0.000      46.784       0.000       0.000      29.260
 Approx polarizability:      68.331      -0.000      68.330      -0.000       0.000      45.329
 Calling FoFJK, ICntrl=    100127 FMM=F ISym2X=0 I1Cent= 0 IOpClX= 0 NMat=1 NMatS=1 NMatT=0.
 Full mass-weighted force constant matrix:
 Low frequencies ---   -2.9688    0.0025    0.0051    0.0071    3.4657    4.7528
 Low frequencies ---  243.4565  243.4740  347.3205
 Diagonal vibrational polarizability:
       12.7428796      12.7421673       4.7225860
 Harmonic frequencies (cm**-1), IR intensities (KM/Mole), Raman scattering
 activities (A**4/AMU), depolarization ratios for plane and unpolarized
 incident light, reduced masses (AMU), force constants (mDyne/A),
 and normal coordinates:
                      1                      2                      3
                      A                      A                      A
 Frequencies --    243.4565               243.4740               347.3205
 Red. masses --     29.9023                29.9020                25.8941
 Frc consts  --      1.0442                 1.0444                 1.8404
 IR Inten    --      0.0101                 0.0101                 0.0000
  Atom  AN      X      Y      Z        X      Y      Z        X      Y      Z
     1   6    -0.18   0.07  -0.00    -0.07  -0.18   0.00     0.00  -0.00   0.45
     2   9    -0.48   0.19  -0.00    -0.19  -0.48   0.00    -0.00   0.00   0.52
     3  17     0.48  -0.28  -0.02    -0.20  -0.26  -0.22    -0.18  -0.35  -0.15
     4  17    -0.29  -0.24   0.20    -0.16   0.50   0.09     0.39   0.02  -0.15
     5  17     0.13   0.40  -0.18     0.48   0.08   0.13    -0.21   0.33  -0.15
                      4                      5                      6
                      A                      A                      A
 Frequencies --    391.9864               391.9916               521.4626
 Red. masses --     25.4912                25.4905                22.2831
 Frc consts  --      2.3077                 2.3077                 3.5700
 IR Inten    --      0.4208                 0.4192                 4.6729
  Atom  AN      X      Y      Z        X      Y      Z        X      Y      Z
     1   6    -0.02  -0.06  -0.00    -0.06   0.02  -0.00    -0.00  -0.00   0.54
     2   9     0.20   0.74  -0.00     0.74  -0.20  -0.00     0.00   0.00   0.61
     3  17    -0.21  -0.33   0.30     0.08  -0.14   0.07     0.13   0.25  -0.17
     4  17    -0.12   0.13  -0.09    -0.38  -0.06  -0.29    -0.28  -0.01  -0.17
     5  17     0.23  -0.17  -0.21    -0.08   0.30   0.22     0.15  -0.24  -0.17
                      7                      8                      9
                      A                      A                      A
 Frequencies --    809.3652               809.4337              1139.0728
 Red. masses --     12.8112                12.8111                13.7218
 Frc consts  --      4.9446                 4.9454                10.4897
 IR Inten    --    308.3023               308.3022               205.3962
  Atom  AN      X      Y      Z        X      Y      Z        X      Y      Z
     1   6     0.78   0.58   0.00    -0.58   0.78  -0.00     0.00   0.00   0.87
     2   9    -0.11  -0.08   0.00     0.08  -0.11   0.00     0.00   0.00  -0.50
     3  17    -0.07  -0.10   0.02     0.00  -0.07   0.01    -0.00  -0.00  -0.01
     4  17    -0.11  -0.03  -0.01     0.08  -0.03   0.01     0.00   0.00  -0.01
     5  17    -0.03  -0.03  -0.00     0.07  -0.11  -0.02    -0.00   0.00  -0.01

 -------------------
 - Thermochemistry -
 -------------------
 Temperature   298.150 Kelvin.  Pressure   1.00000 Atm.
 Atom     1 has atomic number  6 and mass  12.00000
 Atom     2 has atomic number  9 and mass  18.99840
 Atom     3 has atomic number 17 and mass  34.96885
 Atom     4 has atomic number 17 and mass  34.96885
 Atom     5 has atomic number 17 and mass  34.96885
 Molecular mass:   135.90496 amu.
 Principal axes and moments of inertia in atomic units:
                           1         2         3
     Eigenvalues --   750.54864 750.563561080.94813
           X            1.00000  -0.00000   0.00000
           Y            0.00000   1.00000   0.00000
           Z           -0.00000  -0.00000   1.00000
 This molecule is an asymmetric top.
 Rotational symmetry number  1.
 Warning -- assumption of classical behavior for rotation
           may cause significant error
 Rotational temperatures (Kelvin)      0.11540     0.11540     0.08013
 Rotational constants (GHZ):           2.40456     2.40451     1.66959
 Zero-point vibrational energy      29293.9 (Joules/Mol)
                                    7.00142 (Kcal/Mol)
 Warning -- explicit consideration of   6 degrees of freedom as
           vibrations may cause significant error
 Vibrational temperatures:    350.28   350.30   499.72   563.98   563.99
          (Kelvin)            750.27  1164.50  1164.59  1638.87
 
 Zero-point correction=                           0.011157 (Hartree/Particle)
 Thermal correction to Energy=                    0.016362
 Thermal correction to Enthalpy=                  0.017306
 Thermal correction to Gibbs Free Energy=        -0.018952
 Sum of electronic and zero-point Energies=          -1518.493747
 Sum of electronic and thermal Energies=             -1518.488542
 Sum of electronic and thermal Enthalpies=           -1518.487598
 Sum of electronic and thermal Free Energies=        -1518.523856
 
                     E (Thermal)             CV                S
                      KCal/Mol        Cal/Mol-Kelvin    Cal/Mol-Kelvin
 Total                   10.267             16.785             76.311
 Electronic               0.000              0.000              0.000
 Translational            0.889              2.981             40.632
 Rotational               0.889              2.981             27.901
 Vibrational              8.490             10.824              7.778
 Vibration     1          0.659              1.774              1.777
 Vibration     2          0.659              1.774              1.777
 Vibration     3          0.725              1.581              1.178
 Vibration     4          0.759              1.487              0.993
 Vibration     5          0.759              1.487              0.993
 Vibration     6          0.876              1.202              0.607
                       Q            Log10(Q)             Ln(Q)
 Total Bot       0.521443D+09          8.717207         20.072111
 Total V=0       0.706777D+14         13.849283         31.889152
 Vib (Bot)       0.299757D-04         -4.523231        -10.415124
 Vib (Bot)    1  0.804127D+00         -0.094675         -0.217998
 Vib (Bot)    2  0.804063D+00         -0.094710         -0.218078
 Vib (Bot)    3  0.532129D+00         -0.273983         -0.630870
 Vib (Bot)    4  0.457351D+00         -0.339751         -0.782305
 Vib (Bot)    5  0.457343D+00         -0.339758         -0.782322
 Vib (Bot)    6  0.309125D+00         -0.509866         -1.174010
 Vib (V=0)       0.406298D+01          0.608845          1.401916
 Vib (V=0)    1  0.144690D+01          0.160439          0.369424
 Vib (V=0)    2  0.144685D+01          0.160422          0.369386
 Vib (V=0)    3  0.123018D+01          0.089968          0.207160
 Vib (V=0)    4  0.117762D+01          0.071005          0.163496
 Vib (V=0)    5  0.117762D+01          0.071003          0.163491
 Vib (V=0)    6  0.108784D+01          0.036566          0.084196
 Electronic      0.100000D+01          0.000000          0.000000
 Translational   0.622740D+08          7.794307         17.947055
 Rotational      0.279339D+06          5.446131         12.540180
 ***** Axes restored to original set *****
 -------------------------------------------------------------------
 Center     Atomic                   Forces (Hartrees/Bohr)
 Number     Number              X              Y              Z
 -------------------------------------------------------------------
      1        6          -0.000020470    0.000058671   -0.000061167
      2        9           0.000033219   -0.000060833    0.000073465
      3       17          -0.000007034   -0.000003483   -0.000007720
      4       17          -0.000001601    0.000002098   -0.000002047
      5       17          -0.000004114    0.000003546   -0.000002532
 -------------------------------------------------------------------
 Cartesian Forces:  Max     0.000073465 RMS     0.000034614
 FormGI is forming the generalized inverse of G from B-inverse, IUseBI=4.

 GradGradGradGradGradGradGradGradGradGradGradGradGradGradGradGradGradGrad
 Berny optimization.
 Internal  Forces:  Max     0.000100996 RMS     0.000027354
 Search for a local minimum.
 Step number   1 out of a maximum of    2
 All quantities printed in internal units (Hartrees-Bohrs-Radians)
 Second derivative matrix not updated -- analytic derivatives used.
 The second derivative matrix:
                          R1        R2        R3        R4        A1
           R1           0.39673
           R2           0.03815   0.19188
           R3           0.03815   0.02749   0.19190
           R4           0.03815   0.02748   0.02748   0.19187
           A1           0.00680   0.00857  -0.00413  -0.00927   0.03801
           A2           0.01073  -0.00249   0.01427  -0.01940  -0.01239
           A3           0.02119  -0.01553  -0.01760   0.01809  -0.02586
           A4          -0.00204   0.01034   0.01172  -0.02062  -0.01227
           A5          -0.01643   0.01910  -0.02012   0.01268  -0.02127
           A6          -0.01850  -0.02042   0.01553   0.01804   0.03377
           D1           0.01361   0.01492   0.01046  -0.03505   0.03157
           D2          -0.01161  -0.01208   0.02741  -0.00709  -0.01815
           D3           0.01518  -0.02433   0.01566  -0.00211  -0.01119
           D4           0.02680  -0.01225  -0.01175   0.00498   0.00696
                          A2        A3        A4        A5        A6
           A2           0.07562
           A3          -0.04717   0.14805
           A4           0.00405   0.03393   0.07994
           A5           0.03226  -0.06070  -0.04638   0.14529
           A6          -0.05165  -0.04488  -0.05812  -0.05145   0.16951
           D1           0.03327  -0.04043   0.03397  -0.03318  -0.02410
           D2           0.02501  -0.02332   0.02122  -0.02161   0.01610
           D3           0.03328   0.00660  -0.00819  -0.02755   0.00833
           D4           0.00827   0.02992  -0.02941  -0.00594  -0.00777
                          D1        D2        D3        D4
           D1           0.07835
           D2           0.00546   0.04880
           D3           0.00188   0.02559   0.04933
           D4          -0.00359  -0.02321   0.02374   0.04695
 ITU=  0
     Eigenvalues ---    0.07838   0.08998   0.10822   0.17443   0.21419
     Eigenvalues ---    0.23781   0.25744   0.26382   0.42796
 Angle between quadratic step and forces=  20.25 degrees.
 Linear search not attempted -- first point.
 Iteration  1 RMS(Cart)=  0.00006498 RMS(Int)=  0.00000000
 Iteration  2 RMS(Cart)=  0.00000000 RMS(Int)=  0.00000000
 Variable       Old X    -DE/DX   Delta X   Delta X   Delta X     New X
                                 (Linear)    (Quad)   (Total)
    R1        2.52849  -0.00010   0.00000  -0.00027  -0.00027   2.52822
    R2        3.38070   0.00001   0.00000   0.00009   0.00009   3.38079
    R3        3.38071  -0.00000   0.00000   0.00004   0.00004   3.38075
    R4        3.38074  -0.00000   0.00000   0.00001   0.00001   3.38075
    A1        1.88998  -0.00000   0.00000  -0.00001  -0.00001   1.88997
    A2        1.88998  -0.00000   0.00000   0.00001   0.00001   1.88998
    A3        1.88996  -0.00001   0.00000   0.00001   0.00001   1.88998
    A4        1.93085   0.00000   0.00000  -0.00001  -0.00001   1.93084
    A5        1.93081   0.00001   0.00000   0.00001   0.00001   1.93082
    A6        1.93084   0.00000   0.00000  -0.00000  -0.00000   1.93083
    D1        2.06865  -0.00001   0.00000  -0.00002  -0.00002   2.06863
    D2       -2.06862   0.00000   0.00000   0.00000   0.00000  -2.06862
    D3        2.06863  -0.00000   0.00000   0.00001   0.00001   2.06865
    D4       -2.14593  -0.00001   0.00000   0.00001   0.00001  -2.14592
         Item               Value     Threshold  Converged?
 Maximum Force            0.000101     0.000450     YES
 RMS     Force            0.000027     0.000300     YES
 Maximum Displacement     0.000140     0.001800     YES
 RMS     Displacement     0.000065     0.001200     YES
 Predicted change in Energy=-1.385752D-08
 Optimization completed.
    -- Stationary point found.
                           ----------------------------
                           !   Optimized Parameters   !
                           ! (Angstroms and Degrees)  !
 --------------------------                            --------------------------
 ! Name  Definition              Value          Derivative Info.                !
 --------------------------------------------------------------------------------
 ! R1    R(1,2)                  1.338          -DE/DX =   -0.0001              !
 ! R2    R(1,3)                  1.789          -DE/DX =    0.0                 !
 ! R3    R(1,4)                  1.789          -DE/DX =    0.0                 !
 ! R4    R(1,5)                  1.789          -DE/DX =    0.0                 !
 ! A1    A(2,1,3)              108.2881         -DE/DX =    0.0                 !
 ! A2    A(2,1,4)              108.2877         -DE/DX =    0.0                 !
 ! A3    A(2,1,5)              108.287          -DE/DX =    0.0                 !
 ! A4    A(3,1,4)              110.6295         -DE/DX =    0.0                 !
 ! A5    A(3,1,5)              110.6271         -DE/DX =    0.0                 !
 ! A6    A(4,1,5)              110.6287         -DE/DX =    0.0                 !
 ! D1    D(2,1,4,3)            118.5252         -DE/DX =    0.0                 !
 ! D2    D(2,1,5,3)           -118.5234         -DE/DX =    0.0                 !
 ! D3    D(2,1,5,4)            118.5238         -DE/DX =    0.0                 !
 ! D4    D(3,1,5,4)           -122.9528         -DE/DX =    0.0                 !
 --------------------------------------------------------------------------------
 GradGradGradGradGradGradGradGradGradGradGradGradGradGradGradGradGradGrad


 ----------------------------------------------------------------------

 Electric dipole moment (input orientation):
 (Debye = 10**-18 statcoulomb cm , SI units = C m)
                  (au)            (Debye)         (10**-30 SI)
   Tot        0.672561D-01      0.170948D+00      0.570221D+00
   x          0.223726D-01      0.568654D-01      0.189683D+00
   y         -0.409101D-01     -0.103983D+00     -0.346850D+00
   z          0.484687D-01      0.123195D+00      0.410935D+00

 Dipole polarizability, Alpha (input orientation).
 (esu units = cm**3 , SI units = C**2 m**2 J**-1)
 Alpha(0;0):
               (au)            (10**-24 esu)      (10**-40 SI)
   iso        0.409425D+02      0.606706D+01      0.675051D+01
   aniso      0.175242D+02      0.259682D+01      0.288935D+01
   xx         0.448368D+02      0.664413D+01      0.739259D+01
   yx         0.355198D+01      0.526348D+00      0.585642D+00
   yy         0.403032D+02      0.597232D+01      0.664510D+01
   zx        -0.420885D+01     -0.623687D+00     -0.693946D+00
   zy         0.767792D+01      0.113775D+01      0.126592D+01
   zz         0.376876D+02      0.558473D+01      0.621385D+01

 ----------------------------------------------------------------------

 Dipole orientation:
     6          1.60238558          0.28857095          0.60611183
     9          1.60058182          0.28834327         -1.92237850
    17          0.35738808         -2.66968655          1.66811840
    17         -0.33592673          2.84676485          1.66809542
    17          4.78809613          0.68890396          1.66460248

 Electric dipole moment (dipole orientation):
 (Debye = 10**-18 statcoulomb cm , SI units = C m)
                  (au)            (Debye)         (10**-30 SI)
   Tot        0.672561D-01      0.170948D+00      0.570221D+00
   x          0.000000D+00      0.000000D+00      0.000000D+00
   y          0.000000D+00      0.000000D+00      0.000000D+00
   z          0.672561D-01      0.170948D+00      0.570221D+00

 Dipole polarizability, Alpha (dipole orientation).
 (esu units = cm**3 , SI units = C**2 m**2 J**-1)
 Alpha(0;0):
               (au)            (10**-24 esu)      (10**-40 SI)
   iso        0.409425D+02      0.606706D+01      0.675051D+01
   aniso      0.175242D+02      0.259682D+01      0.288935D+01
   xx         0.467840D+02      0.693268D+01      0.771365D+01
   yx        -0.410487D-03     -0.608279D-04     -0.676801D-04
   yy         0.467838D+02      0.693265D+01      0.771361D+01
   zx        -0.126854D-01     -0.187979D-02     -0.209155D-02
   zy        -0.155916D-02     -0.231044D-03     -0.257071D-03
   zz         0.292598D+02      0.433585D+01      0.482428D+01

 ----------------------------------------------------------------------
 Unable to Open any file for archive entry.
 1\1\GINC-HELIUM\Freq\RB3LYP\6-31G(d,p)\C1Cl3F1\YCW79\01-Feb-2023\0\\#N
  Geom=AllCheck Guess=TCheck SCRF=Check GenChk RB3LYP/6-31G(d,p) Freq\\
 test\\0,1\C,0.9180660217,0.0244849553,0.0419636575\F,0.4720695222,0.83
 81594716,-0.9220477044\Cl,0.3044668763,-1.6236553276,-0.2860936896\Cl,
 0.3044514234,0.6246720743,1.6116005757\Cl,2.7066961565,0.0483088264,0.
 0137071608\\Version=ES64L-G16RevC.01\State=1-A\HF=-1518.5049041\RMSD=7
 .528e-10\RMSF=3.461e-05\ZeroPoint=0.0111575\Thermal=0.0163617\ETot=-15
 18.4885424\HTot=-1518.4875982\GTot=-1518.5238559\Dipole=0.0223726,-0.0
 409101,0.0484687\DipoleDeriv=1.7840086,0.0906234,-0.1073938,0.0906322,
 1.6683149,0.1959222,-0.1074149,0.1959581,1.6015469,-0.43693,0.1270953,
 -0.1505742,0.127096,-0.59912,0.2747146,-0.1505785,0.2746953,-0.6927182
 ,-0.2679311,-0.2365536,-0.0417481,-0.2365058,-0.6604089,-0.1835108,-0.
 0417949,-0.1836502,-0.1800062,-0.2679461,0.0809012,0.226198,0.080911,-
 0.2543248,-0.2528003,0.2261151,-0.252677,-0.586066,-0.8112014,-0.06206
 64,0.0735181,-0.0621335,-0.1544612,-0.0343258,0.0736732,-0.0343262,-0.
 1427565\Polar=44.8367825,3.5519755,40.3032069,-4.2088496,7.6779216,37.
 6876128\Quadrupole=0.200119,-0.0327992,-0.1673198,0.1826096,-0.2163933
 ,0.3948159\PG=C01 [X(C1Cl3F1)]\NImag=0\\0.28205815,-0.02995230,0.32020
 884,0.03549214,-0.06473857,0.34231253,-0.08818357,0.04978306,-0.058998
 52,0.10548016,0.04978261,-0.15172309,0.10762247,-0.06641000,0.19024698
 ,-0.05899142,0.10761686,-0.18837017,0.07869032,-0.14356192,0.23915106,
 -0.04547969,-0.02496579,-0.00598837,0.01008488,0.00061135,0.00172068,0
 .05457582,-0.02337572,-0.08798803,-0.01621243,-0.00362963,-0.05116462,
 0.01616555,0.04819664,0.16992285,-0.00657717,-0.01860559,-0.03862251,0
 .00325318,0.02254383,0.00554260,0.00842357,0.02467194,0.04113958,-0.04
 547011,0.01010068,0.02360088,0.01008502,-0.00180429,-0.00031158,0.0065
 7872,-0.00171630,-0.00218271,0.05456417,0.01042063,-0.04578279,-0.0257
 9459,-0.00260380,0.01035967,0.01206613,0.00243837,-0.02189202,-0.02653
 317,-0.01640055,0.05293355,0.02193827,-0.02339444,-0.08085754,0.004131
 95,0.00568269,-0.05597517,0.00132374,-0.02161375,-0.01369542,-0.046102
 46,0.04459666,0.15815950,-0.10292477,-0.00496565,0.00589387,-0.0374664
 9,0.01782033,-0.02110799,-0.02575972,-0.01947499,-0.00291688,-0.025757
 81,0.00614536,0.01870851,0.19190878,-0.00687522,-0.03471492,-0.0008768
 7,0.02286038,0.00228106,0.00771338,-0.02628057,-0.00887818,-0.00207700
 ,0.00982045,0.00438159,-0.00527115,0.00047496,0.03693045,0.00813818,-0
 .00087825,-0.03446231,-0.02707693,0.00771293,-0.00034832,-0.00547961,-
 0.00301131,0.00563574,0.02499587,-0.00433502,-0.00763136,-0.00057751,0
 .00051164,0.03680625\\0.00002047,-0.00005867,0.00006117,-0.00003322,0.
 00006083,-0.00007346,0.00000703,0.00000348,0.00000772,0.00000160,-0.00
 000210,0.00000205,0.00000411,-0.00000355,0.00000253\\\@
 The archive entry for this job was punched.


 BLESSED ARE THOSE WHO NOUGHT EXPECT,
 FOR THEY SHALL NOT BE DISAPPOINTED..  WALCOT - ODE TO PITT
 Job cpu time:       0 days  0 hours  1 minutes 10.2 seconds.
 Elapsed time:       0 days  0 hours  0 minutes  4.4 seconds.
 File lengths (MBytes):  RWF=     11 Int=      0 D2E=      0 Chk=      2 Scr=      1
 Normal termination of Gaussian 16 at Wed Feb  1 14:07:50 2023.
