       N       E                     dE             d eps       ncg     rms          ort
DAV:   1     0.770729542962E+02    0.77073E+02   -0.15238E+03    16   0.284E+02
DAV:   2     0.147275908262E+02   -0.62345E+02   -0.56902E+02    16   0.462E+01
DAV:   3    -0.111570725655E+02   -0.25885E+02   -0.25788E+02    16   0.419E+01
DAV:   4    -0.128953755297E+02   -0.17383E+01   -0.17374E+01    16   0.119E+01
DAV:   5    -0.129108359624E+02   -0.15460E-01   -0.15460E-01    16   0.118E+00
SDA:   6    -0.952711848047E+01    0.33837E+01   -0.15460E-01    16   0.286E+02 0.000E+00
CGA:   7    -0.132270300704E+02   -0.36999E+01   -0.35758E+01    16   0.201E+01 0.421E+00
CGA:   8    -0.137936138659E+02   -0.56658E+00   -0.56701E+00    16   0.973E+00-0.899E-02
CGA:   9    -0.140680255721E+02   -0.27441E+00   -0.27436E+00    16   0.331E+00-0.131E-02
CGA:  10    -0.141629458726E+02   -0.94920E-01   -0.95341E-01    16   0.992E-01-0.437E-02
CGA:  11    -0.141907567464E+02   -0.27811E-01   -0.27892E-01    16   0.278E-01-0.871E-03
CGA:  12    -0.141991077807E+02   -0.83510E-02   -0.83722E-02    16   0.776E-02-0.173E-03
CGA:  13    -0.142015705457E+02   -0.24628E-02   -0.24637E-02    16   0.221E-02 0.206E-05
CGA:  14    -0.142023127142E+02   -0.74217E-03   -0.74201E-03    16   0.658E-03 0.258E-05
CGA:  15    -0.142025516863E+02   -0.23897E-03   -0.23901E-03    16   0.216E-03-0.795E-06
CGA:  16    -0.142026315348E+02   -0.79848E-04   -0.79901E-04    16   0.664E-04-0.468E-06
CGA:  17    -0.142026567021E+02   -0.25167E-04   -0.25221E-04    16   0.183E-04-0.376E-06
CGA:  18    -0.142026635120E+02   -0.68099E-05   -0.68100E-05    16   0.471E-05 0.475E-08
CGA:  19    -0.142026653110E+02   -0.17990E-05   -0.17987E-05    16   0.124E-05 0.670E-08
CGA:  20    -0.142026658063E+02   -0.49531E-06   -0.48731E-06    16   0.350E-06 0.546E-07
   1 F= -.14202666E+02 E0= -.14202666E+02  d E =-.142027E+02  mag=    -0.0000
       N       E                     dE             d eps       ncg     rms          ort
SDA:   1    -0.111588472072E+02    0.30438E+01    0.00000E+00    16   0.702E+01 0.000E+00
CGA:   2    -0.132682893235E+02   -0.21094E+01   -0.21078E+01    16   0.274E+01 0.370E-01
CGA:   3    -0.138294700923E+02   -0.56118E+00   -0.56285E+00    16   0.503E+00 0.889E-02
CGA:   4    -0.139465873701E+02   -0.11712E+00   -0.11718E+00    16   0.906E-01 0.102E-02
CGA:   5    -0.139681707522E+02   -0.21583E-01   -0.21587E-01    16   0.185E-01 0.102E-03
CGA:   6    -0.139731293324E+02   -0.49586E-02   -0.49586E-02    16   0.420E-02 0.301E-04
CGA:   7    -0.139744433492E+02   -0.13140E-02   -0.13137E-02    16   0.130E-02 0.637E-05
CGA:   8    -0.139749141802E+02   -0.47083E-03   -0.47037E-03    16   0.460E-03 0.453E-05
CGA:   9    -0.139750771726E+02   -0.16299E-03   -0.16279E-03    16   0.133E-03 0.251E-05
CGA:  10    -0.139751221390E+02   -0.44966E-04   -0.44932E-04    16   0.308E-04 0.564E-06
CGA:  11    -0.139751314126E+02   -0.92736E-05   -0.92657E-05    16   0.662E-05 0.445E-06
CGA:  12    -0.139751335877E+02   -0.21751E-05   -0.21758E-05    16   0.142E-05-0.149E-07
CGA:  13    -0.139751340937E+02   -0.50605E-06   -0.50326E-06    16   0.354E-06 0.387E-07
   2 F= -.13975134E+02 E0= -.13975134E+02  d E =0.227532E+00  mag=    -0.0000
       N       E                     dE             d eps       ncg     rms          ort
SDA:   1    -0.123778796563E+02    0.15973E+01    0.00000E+00    16   0.457E+01 0.000E+00
CGA:   2    -0.137588749145E+02   -0.13810E+01   -0.13811E+01    16   0.179E+01-0.115E-01
CGA:   3    -0.141211659376E+02   -0.36229E+00   -0.36405E+00    16   0.324E+00 0.345E-02
CGA:   4    -0.141966109720E+02   -0.75445E-01   -0.75411E-01    16   0.575E-01 0.107E-03
CGA:   5    -0.142102863405E+02   -0.13675E-01   -0.13682E-01    16   0.115E-01 0.530E-04
CGA:   6    -0.142133998160E+02   -0.31135E-02   -0.31137E-02    16   0.257E-02 0.133E-04
CGA:   7    -0.142142092496E+02   -0.80943E-03   -0.80925E-03    16   0.780E-03 0.482E-05
CGA:   8    -0.142144939635E+02   -0.28471E-03   -0.28446E-03    16   0.270E-03 0.302E-05
CGA:   9    -0.142145906875E+02   -0.96724E-04   -0.96623E-04    16   0.735E-04 0.144E-05
CGA:  10    -0.142146162818E+02   -0.25594E-04   -0.25562E-04    16   0.147E-04 0.620E-06
CGA:  11    -0.142146211354E+02   -0.48536E-05   -0.48512E-05    16   0.282E-05 0.843E-07
CGA:  12    -0.142146220952E+02   -0.95977E-06   -0.95767E-06    16   0.588E-06 0.567E-07
   3 F= -.14214622E+02 E0= -.14214622E+02  d E =-.119563E-01  mag=     0.0000
       N       E                     dE             d eps       ncg     rms          ort
SDA:   1    -0.142146058290E+02    0.15306E-04    0.00000E+00    16   0.469E-04 0.000E+00
CGA:   2    -0.142146200329E+02   -0.14204E-04   -0.14204E-04    16   0.184E-04 0.215E-07
CGA:   3    -0.142146238201E+02   -0.37872E-05   -0.37839E-05    16   0.335E-05-0.321E-07
CGA:   4    -0.142146245794E+02   -0.75928E-06   -0.76093E-06    16   0.571E-06 0.226E-07
CGA:   5    -0.142146247174E+02   -0.13798E-06   -0.13718E-06    16   0.114E-06-0.139E-07
CGA:   6    -0.142146247456E+02   -0.28279E-07   -0.28330E-07    16   0.190E-07 0.224E-08
   4 F= -.14214625E+02 E0= -.14214625E+02  d E =-.119589E-01  mag=     0.0000
       N       E                     dE             d eps       ncg     rms          ort
SDA:   1    -0.142055840886E+02    0.90406E-02    0.00000E+00    16   0.217E-01 0.000E+00
CGA:   2    -0.142117531513E+02   -0.61691E-02   -0.61693E-02    16   0.943E-02 0.107E-04
CGA:   3    -0.142136598661E+02   -0.19067E-02   -0.19064E-02    16   0.173E-02 0.130E-05
CGA:   4    -0.142140555046E+02   -0.39564E-03   -0.39549E-03    16   0.293E-03-0.297E-05
CGA:   5    -0.142141236773E+02   -0.68173E-04   -0.68219E-04    16   0.561E-04 0.883E-06
CGA:   6    -0.142141386692E+02   -0.14992E-04   -0.14993E-04    16   0.115E-04 0.672E-07
CGA:   7    -0.142141421864E+02   -0.35172E-05   -0.35231E-05    16   0.322E-05 0.837E-07
CGA:   8    -0.142141432846E+02   -0.10982E-05   -0.10897E-05    16   0.995E-06 0.172E-06
CGA:   9    -0.142141436495E+02   -0.36490E-06   -0.35966E-06    16   0.269E-06 0.938E-07
   5 F= -.14214144E+02 E0= -.14214144E+02  d E =0.481096E-03  mag=     0.0000
       N       E                     dE             d eps       ncg     rms          ort
SDA:   1    -0.142106666911E+02    0.34766E-02    0.00000E+00    16   0.103E-01 0.000E+00
CGA:   2    -0.142136082951E+02   -0.29416E-02   -0.29416E-02    16   0.449E-02-0.201E-05
CGA:   3    -0.142145153295E+02   -0.90703E-03   -0.90714E-03    16   0.822E-03-0.451E-06
CGA:   4    -0.142147022501E+02   -0.18692E-03   -0.18704E-03    16   0.138E-03 0.229E-05
CGA:   5    -0.142147349777E+02   -0.32728E-04   -0.32700E-04    16   0.269E-04-0.596E-06
CGA:   6    -0.142147420902E+02   -0.71124E-05   -0.71120E-05    16   0.547E-05-0.282E-07
CGA:   7    -0.142147437792E+02   -0.16890E-05   -0.16901E-05    16   0.156E-05-0.601E-07
CGA:   8    -0.142147443478E+02   -0.56859E-06   -0.58166E-06    16   0.581E-06-0.123E-06
   6 F= -.14214744E+02 E0= -.14214744E+02  d E =-.119602E-03  mag=    -0.0000
       N       E                     dE             d eps       ncg     rms          ort
SDA:   1    -0.142145524283E+02    0.19135E-03    0.00000E+00    16   0.494E-03 0.000E+00
CGA:   2    -0.142147130358E+02   -0.16061E-03   -0.16061E-03    16   0.198E-03-0.246E-07
CGA:   3    -0.142147526992E+02   -0.39663E-04   -0.39765E-04    16   0.354E-04 0.112E-05
CGA:   4    -0.142147607042E+02   -0.80050E-05   -0.79984E-05    16   0.541E-05-0.104E-06
CGA:   5    -0.142147619585E+02   -0.12543E-05   -0.12568E-05    16   0.103E-05 0.495E-07
CGA:   6    -0.142147622247E+02   -0.26622E-06   -0.26585E-06    16   0.191E-06-0.134E-07
   7 F= -.14214762E+02 E0= -.14214762E+02  d E =-.178769E-04  mag=     0.0000
       N       E                     dE             d eps       ncg     rms          ort
SDA:   1    -0.142147596279E+02    0.23306E-05    0.00000E+00    16   0.690E-05 0.000E+00
CGA:   2    -0.142147618321E+02   -0.22043E-05   -0.22045E-05    16   0.281E-05-0.830E-08
CGA:   3    -0.142147623584E+02   -0.52622E-06   -0.53861E-06    16   0.451E-06 0.135E-06
CGA:   4    -0.142147624700E+02   -0.11160E-06   -0.11127E-06    16   0.960E-07-0.742E-08
CGA:   5    -0.142147624893E+02   -0.19341E-07   -0.19803E-07    16   0.147E-07 0.626E-08
CGA:   6    -0.142147624934E+02   -0.41326E-08   -0.39164E-08    16   0.273E-08 0.468E-09
   8 F= -.14214762E+02 E0= -.14214762E+02  d E =-.181457E-04  mag=     0.0000
       N       E                     dE             d eps       ncg     rms          ort
SDA:   1    -0.142146889067E+02    0.73583E-04    0.00000E+00    16   0.194E-03 0.000E+00
CGA:   2    -0.142147517686E+02   -0.62862E-04   -0.62894E-04    16   0.773E-04-0.924E-07
CGA:   3    -0.142147671981E+02   -0.15429E-04   -0.15481E-04    16   0.137E-04 0.706E-06
CGA:   4    -0.142147703376E+02   -0.31395E-05   -0.31389E-05    16   0.222E-05-0.736E-07
CGA:   5    -0.142147708453E+02   -0.50769E-06   -0.50921E-06    16   0.401E-06 0.278E-07
CGA:   6    -0.142147709514E+02   -0.10609E-06   -0.10544E-06    16   0.766E-07-0.482E-08
   9 F= -.14214771E+02 E0= -.14214771E+02  d E =-.845797E-05  mag=     0.0000
