 vasp.6.3.2 27Jun22 (build Sep  5 2022 18:50:32) complex                         
 executed on              LinuxNV date 2023.01.14  19:03:05
 running    8 mpi-ranks, with   16 threads/rank
 distrk:  each k-point on    8 cores,    1 groups
 distr:  one band on NCORE=   1 cores,    8 groups


--------------------------------------------------------------------------------------------------------


 INCAR:
   ISPIN = 2        (Spin polarised DFT)
   LORBIT = 11
   LREAL = .FALSE.       (Projection operators: automatic)
   ENCUT = 520        (Cut-off energy for plane wave basis set, in eV)
   PREC = Accurate   (Precision level: Normal or Accurate, set Accurate when perform structure lattice relaxation calculation)
   LWAVE = .TRUE.        (Write WAVECAR or not)
   LCHARG = .TRUE.        (Write CHGCAR or not)
   ADDGRID = .TRUE.        (Increase grid, helps GGA convergence)
   ALGO = All
   ISMEAR = -1            (Gaussian smearing, metals:1)
   SIGMA = 0.05         (Smearing value in eV, metals:0.2)
   NELM = 150           (Max electronic SCF steps)
   NELMIN = 6            (Min electronic SCF steps)
   EDIFF = 1E-06        (SCF energy convergence, in eV)
   NSW = 100          (Max ionic steps)
   IBRION = 2            (Algorithm: 0-MD, 1-Quasi-New, 2-CG)
   ISIF = 2            (Stress/relaxation: 2-Ions, 3-Shape/Ions/V, 4-Shape/Ions)
   EDIFFG = -1E-02        (Ionic convergence, eV/AA)

 POTCAR:    PAW_PBE H 15Jun2001                   
 POTCAR:    PAW_PBE O 08Apr2002                   
 -----------------------------------------------------------------------------
|                                                                             |
|           W    W    AA    RRRRR   N    N  II  N    N   GGGG   !!!           |
|           W    W   A  A   R    R  NN   N  II  NN   N  G    G  !!!           |
|           W    W  A    A  R    R  N N  N  II  N N  N  G       !!!           |
|           W WW W  AAAAAA  RRRRR   N  N N  II  N  N N  G  GGG   !            |
|           WW  WW  A    A  R   R   N   NN  II  N   NN  G    G                |
|           W    W  A    A  R    R  N    N  II  N    N   GGGG   !!!           |
|                                                                             |
|     You use a magnetic or noncollinear calculation, but did not specify     |
|     the initial magnetic moment with the MAGMOM tag. Note that a            |
|     default of 1 will be used for all atoms. This ferromagnetic setup       |
|     may break the symmetry of the crystal, in particular it may rule        |
|     out finding an antiferromagnetic solution. Thence, we recommend         |
|     setting the initial magnetic moment manually or verifying carefully     |
|     that this magnetic setup is desired.                                    |
|                                                                             |
 -----------------------------------------------------------------------------

 POTCAR:    PAW_PBE H 15Jun2001                   
   SHA256 =  030f79b5d3ab3cf0e668861823c8fb652ff669f3e15e46930bd03bfd63a607b6 H/POTCAR              
   COPYR  = (c) Copyright 15Jun2001 Georg Kresse                                                    
   COPYR  = This file is part of the software VASP. Any use, copying, and all other rights are regul
   COPYR  = If you do not have a valid VASP license, you may not use, copy or distribute this file. 
   VRHFIN =H: ultrasoft test                                                                        
   LEXCH  = PE                                                                                      
   EATOM  =    12.4884 eV,    0.9179 Ry                                                             
                                                                                                    
   TITEL  = PAW_PBE H 15Jun2001                                                                     
   LULTRA =        F    use ultrasoft PP ?                                                          
   IUNSCR =        0    unscreen: 0-lin 1-nonlin 2-no                                               
   RPACOR =    0.000    partial core radius                                                         
   POMASS =    1.000; ZVAL   =    1.000    mass and valenz                                          
   RCORE  =    1.100    outmost cutoff radius                                                       
   RWIGS  =    0.700; RWIGS  =    0.370    wigner-seitz radius (au A)                               
   ENMAX  =  250.000; ENMIN  =  200.000 eV                                                          
   RCLOC  =    0.701    cutoff for local pot                                                        
   LCOR   =        T    correct aug charges                                                         
   LPAW   =        T    paw PP                                                                      
   EAUG   =  400.000                                                                                
   RMAX   =    1.123    core radius for proj-oper                                                   
   RAUG   =    1.200    factor for augmentation sphere                                              
   RDEP   =    1.112    radius for radial grids                                                     
   RDEPT  =    0.926    core radius for aug-charge                                                  
                                                                                                    
   Atomic configuration                                                                             
    2 entries                                                                                       
     n  l   j            E        occ.                                                              
     1  0  0.50        -6.4927   1.0000                                                             
     2  1  0.50        -3.4015   0.0000                                                             
   Description                                                                                      
     l       E           TYP  RCUT    TYP  RCUT                                                     
     0     -6.4927494     23  1.100                                                                 
     0      6.8029130     23  1.100                                                                 
     1     -4.0817478     23  1.100                                                                 
  local pseudopotential read in
  atomic valenz-charges read in
  non local Contribution for L=            0  read in
    real space projection operators read in
  non local Contribution for L=            0  read in
    real space projection operators read in
  non local Contribution for L=            1  read in
    real space projection operators read in
    PAW grid and wavefunctions read in
 
   number of l-projection  operators is LMAX  =            3
   number of lm-projection operators is LMMAX =            5
 
 POTCAR:    PAW_PBE O 08Apr2002                   
   SHA256 =  818f92134a0a090dccd8ba1447fa70422a3b330e708bb4f08108d8ae51209ddf O/POTCAR              
   COPYR  = (c) Copyright 08Apr2002 Georg Kresse                                                    
   COPYR  = This file is part of the software VASP. Any use, copying, and all other rights are regul
   COPYR  = If you do not have a valid VASP license, you may not use, copy or distribute this file. 
   VRHFIN =O: s2p4                                                                                  
   LEXCH  = PE                                                                                      
   EATOM  =   432.3788 eV,   31.7789 Ry                                                             
                                                                                                    
   TITEL  = PAW_PBE O 08Apr2002                                                                     
   LULTRA =        F    use ultrasoft PP ?                                                          
   IUNSCR =        1    unscreen: 0-lin 1-nonlin 2-no                                               
   RPACOR =    1.200    partial core radius                                                         
   POMASS =   16.000; ZVAL   =    6.000    mass and valenz                                          
   RCORE  =    1.520    outmost cutoff radius                                                       
   RWIGS  =    1.550; RWIGS  =    0.820    wigner-seitz radius (au A)                               
   ENMAX  =  400.000; ENMIN  =  300.000 eV                                                          
   ICORE  =        2    local potential                                                             
   LCOR   =        T    correct aug charges                                                         
   LPAW   =        T    paw PP                                                                      
   EAUG   =  605.392                                                                                
   DEXC   =    0.000                                                                                
   RMAX   =    1.553    core radius for proj-oper                                                   
   RAUG   =    1.300    factor for augmentation sphere                                              
   RDEP   =    1.550    radius for radial grids                                                     
   RDEPT  =    1.329    core radius for aug-charge                                                  
                                                                                                    
   Atomic configuration                                                                             
    4 entries                                                                                       
     n  l   j            E        occ.                                                              
     1  0  0.50      -514.6923   2.0000                                                             
     2  0  0.50       -23.9615   2.0000                                                             
     2  1  0.50        -9.0305   4.0000                                                             
     3  2  1.50        -9.5241   0.0000                                                             
   Description                                                                                      
     l       E           TYP  RCUT    TYP  RCUT                                                     
     0    -23.9615318     23  1.200                                                                 
     0     -9.5240782     23  1.200                                                                 
     1     -9.0304911     23  1.520                                                                 
     1      8.1634956     23  1.520                                                                 
     2     -9.5240782      7  1.500                                                                 
  local pseudopotential read in
  partial core-charges read in
  partial kinetic energy density read in
  kinetic energy density of atom read in
  atomic valenz-charges read in
  non local Contribution for L=            0  read in
    real space projection operators read in
  non local Contribution for L=            0  read in
    real space projection operators read in
  non local Contribution for L=            1  read in
    real space projection operators read in
  non local Contribution for L=            1  read in
    real space projection operators read in
    PAW grid and wavefunctions read in
 
   number of l-projection  operators is LMAX  =            4
   number of lm-projection operators is LMMAX =            8
 
  PAW_PBE H 15Jun2001                   :
 energy of atom  1       EATOM=  -12.4884
 kinetic energy error for atom=    0.0014 (will be added to EATOM!!)
  PAW_PBE O 08Apr2002                   :
 energy of atom  2       EATOM= -432.3788
 kinetic energy error for atom=    0.0208 (will be added to EATOM!!)
 
 
 POSCAR: cif2pos.py
  positions in direct lattice
  No initial velocities read in
 exchange correlation table for  LEXCH =        8
   RHO(1)=    0.500       N(1)  =     2000
   RHO(2)=  100.500       N(2)  =     4000
 


--------------------------------------------------------------------------------------------------------


 ion  position               nearest neighbor table
   1  0.482  0.653  0.509-   3 0.96
   2  0.482  0.789  0.501-   3 0.99
   3  0.482  0.728  0.523-   1 0.96   2 0.99
 
  LATTYP: Found a simple orthorhombic cell.
 ALAT       =    11.1038000000
 B/A-ratio  =     1.0086817126
 C/A-ratio  =     2.9210360417
  
  Lattice vectors:
  
 A1 = (  11.1038000000,   0.0000000000,   0.0000000000)
 A2 = (   0.0000000000,  11.2002000000,   0.0000000000)
 A3 = (   0.0000000000,   0.0000000000,  32.4346000000)


Analysis of symmetry for initial positions (statically):
=====================================================================
 Subroutine PRICEL returns:
 Original cell was already a primitive cell.
 

 Routine SETGRP: Setting up the symmetry group for a 
 simple orthorhombic supercell.


 Subroutine GETGRP returns: Found  2 space group operations
 (whereof  1 operations were pure point group operations)
 out of a pool of  8 trial point group operations.


The static configuration has the point symmetry C_1 .
 The point group associated with its full space group is C_1h.


Analysis of symmetry for dynamics (positions and initial velocities):
=====================================================================
 Subroutine PRICEL returns:
 Original cell was already a primitive cell.
 

 Routine SETGRP: Setting up the symmetry group for a 
 simple orthorhombic supercell.


 Subroutine GETGRP returns: Found  2 space group operations
 (whereof  1 operations were pure point group operations)
 out of a pool of  8 trial point group operations.


The dynamic configuration has the point symmetry C_1 .
 The point group associated with its full space group is C_1h.


Analysis of structural, dynamic, and magnetic symmetry:
=====================================================================
 Subroutine PRICEL returns:
 Original cell was already a primitive cell.
 

 Routine SETGRP: Setting up the symmetry group for a 
 simple orthorhombic supercell.


 Subroutine GETGRP returns: Found  2 space group operations
 (whereof  1 operations were pure point group operations)
 out of a pool of  8 trial point group operations.


The overall configuration has the point symmetry C_1 .
 The point group associated with its full space group is C_1h.


 Subroutine INISYM returns: Found  2 space group operations
 (whereof  1 operations are pure point group operations),
 and found     1 'primitive' translations


----------------------------------------------------------------------------------------

                                     Primitive cell                                     

  volume of cell :    4033.7219

  direct lattice vectors                    reciprocal lattice vectors
    11.103800000  0.000000000  0.000000000     0.090059259  0.000000000  0.000000000
     0.000000000 11.200200000  0.000000000     0.000000000  0.089284120  0.000000000
     0.000000000  0.000000000 32.434600000     0.000000000  0.000000000  0.030831273

  length of vectors
    11.103800000 11.200200000 32.434600000     0.090059259  0.089284120  0.030831273

  position of ions in fractional coordinates (direct lattice)
     0.482290000  0.652860000  0.509030000
     0.482290000  0.788770000  0.501150000
     0.482290000  0.727930000  0.523320000

  ion indices of the primitive-cell ions
   primitive index   ion index
                 1           1
                 2           2
                 3           3

----------------------------------------------------------------------------------------

 
 
 KPOINTS: K-Spacing Value to Generate K-Mesh: 0.03

Automatic generation of k-mesh.
 Grid dimensions read from file:
 generate k-points for:    1    1    1

 Generating k-lattice:

  Cartesian coordinates                     Fractional coordinates (reciprocal lattice)
     0.090059259  0.000000000  0.000000000     1.000000000  0.000000000  0.000000000
     0.000000000  0.089284120  0.000000000     0.000000000  1.000000000  0.000000000
     0.000000000  0.000000000  0.030831273     0.000000000  0.000000000  1.000000000

  Length of vectors
     0.090059259  0.089284120  0.030831273

  Shift w.r.t. Gamma in fractional coordinates (k-lattice)
     0.000000000  0.000000000  0.000000000

 
 Subroutine IBZKPT returns following result:
 ===========================================
 
 Found      1 irreducible k-points:
 
 Following reciprocal coordinates:
            Coordinates               Weight
  0.000000  0.000000  0.000000      1.000000
 
 Following cartesian coordinates:
            Coordinates               Weight
  0.000000  0.000000  0.000000      1.000000
 


--------------------------------------------------------------------------------------------------------




 Dimension of arrays:
   k-points           NKPTS =      1   k-points in BZ     NKDIM =      1   number of bands    NBANDS=     16
   number of dos      NEDOS =    301   number of ions     NIONS =      3
   non local maximal  LDIM  =      4   non local SUM 2l+1 LMDIM =      8
   total plane-waves  NPLWV = ******
   max r-space proj   IRMAX =      1   max aug-charges    IRDMAX=  45583
   dimension x,y,z NGX =    84 NGY =   84 NGZ =  250
   dimension x,y,z NGXF=   168 NGYF=  168 NGZF=  500
   support grid    NGXF=   336 NGYF=  336 NGZF= 1000
   ions per type =               2   1
   NGX,Y,Z   is equivalent  to a cutoff of  12.58, 12.47, 12.81 a.u.
   NGXF,Y,Z  is equivalent  to a cutoff of  25.15, 24.94, 25.63 a.u.

 SYSTEM =  unknown system                          
 POSCAR =  cif2pos.py                              

 Startparameter for this run:
   NWRITE =      2    write-flag & timer
   PREC   = accura    normal or accurate (medium, high low for compatibility)
   ISTART =      0    job   : 0-new  1-cont  2-samecut
   ICHARG =      2    charge: 1-file 2-atom 10-const
   ISPIN  =      2    spin polarized calculation?
   LNONCOLLINEAR =      F non collinear calculations
   LSORBIT =      F    spin-orbit coupling
   INIWAV =      1    electr: 0-lowe 1-rand  2-diag
   LASPH  =      F    aspherical Exc in radial PAW
 Electronic Relaxation 1
   ENCUT  =  520.0 eV  38.22 Ry    6.18 a.u.  20.65 20.82 60.31*2*pi/ulx,y,z
   ENINI  =  520.0     initial cutoff
   ENAUG  =  605.4 eV  augmentation charge cutoff
   NELM   =    150;   NELMIN=  6; NELMDL= -5     # of ELM steps 
   EDIFF  = 0.1E-05   stopping-criterion for ELM
   LREAL  =      F    real-space projection
   NLSPLINE    = F    spline interpolate recip. space projectors
   LCOMPAT=      F    compatible to vasp.4.4
   GGA_COMPAT  = T    GGA compatible to vasp.4.4-vasp.4.6
   LMAXPAW     = -100 max onsite density
   LMAXMIX     =    2 max onsite mixed and CHGCAR
   VOSKOWN=      0    Vosko Wilk Nusair interpolation
   ROPT   =    0.00000   0.00000
 Ionic relaxation
   EDIFFG = -.1E-01   stopping-criterion for IOM
   NSW    =    100    number of steps for IOM
   NBLOCK =      1;   KBLOCK =    100    inner block; outer block 
   IBRION =      2    ionic relax: 0-MD 1-quasi-New 2-CG
   NFREE  =      1    steps in history (QN), initial steepest desc. (CG)
   ISIF   =      2    stress and relaxation
   IWAVPR =     11    prediction:  0-non 1-charg 2-wave 3-comb
   ISYM   =      2    0-nonsym 1-usesym 2-fastsym
   LCORR  =      T    Harris-Foulkes like correction to forces

   POTIM  = 0.5000    time-step for ionic-motion
   TEIN   =    0.0    initial temperature
   TEBEG  =    0.0;   TEEND  =   0.0 temperature during run
   SMASS  =  -3.00    Nose mass-parameter (am)
   estimated Nose-frequenzy (Omega)   =  0.10E-29 period in steps = 0.13E+47 mass=  -0.282E-26a.u.
   SCALEE = 1.0000    scale energy and forces
   NPACO  =    256;   APACO  = 10.0  distance and # of slots for P.C.
   PSTRESS=    0.0 pullay stress

  Mass of Ions in am
   POMASS =   1.00 16.00
  Ionic Valenz
   ZVAL   =   1.00  6.00
  Atomic Wigner-Seitz radii
   RWIGS  =  -1.00 -1.00
  virtual crystal weights 
   VCA    =   1.00  1.00
   NELECT =       8.0000    total number of electrons
   NUPDOWN=      -1.0000    fix difference up-down

 DOS related values:
   EMIN   =  10.00;   EMAX   =-10.00  energy-range for DOS
   EFERMI =   0.00
   ISMEAR =    -1;   SIGMA  =   0.05  broadening in eV -4-tet -1-fermi 0-gaus

 Electronic relaxation 2 (details)
   IALGO  =     58    algorithm
   LDIAG  =      T    sub-space diagonalisation (order eigenvalues)
   LSUBROT=      F    optimize rotation matrix (better conditioning)
   TURBO    =      0    0=normal 1=particle mesh
   IRESTART =      0    0=no restart 2=restart with 2 vectors
   NREBOOT  =      0    no. of reboots
   NMIN     =      0    reboot dimension
   EREF     =   0.00    reference energy to select bands
   IMIX   =      4    mixing-type and parameters
     AMIX     =   0.40;   BMIX     =  1.00
     AMIX_MAG =   1.60;   BMIX_MAG =  1.00
     AMIN     =   0.10
     WC   =   100.;   INIMIX=   1;  MIXPRE=   1;  MAXMIX= -45

 Intra band minimization:
   WEIMIN = 0.0010     energy-eigenvalue tresh-hold
   EBREAK =  0.16E-07  absolut break condition
   DEPER  =   0.30     relativ break condition  

   TIME   =   0.40     timestep for ELM

  volume/ion in A,a.u.               =    1344.57      9073.63
  Fermi-wavevector in a.u.,A,eV,Ry     =   0.205685  0.388688  0.575613  0.042306
  Thomas-Fermi vector in A             =   0.967064
 
 Write flags
   LWAVE        =      T    write WAVECAR
   LDOWNSAMPLE  =      F    k-point downsampling of WAVECAR
   LCHARG       =      T    write CHGCAR
   LVTOT        =      F    write LOCPOT, total local potential
   LVHAR        =      F    write LOCPOT, Hartree potential only
   LELF         =      F    write electronic localiz. function (ELF)
   LORBIT       =     11    0 simple, 1 ext, 2 COOP (PROOUT), +10 PAW based schemes


 Dipole corrections
   LMONO  =      F    monopole corrections only (constant potential shift)
   LDIPOL =      F    correct potential (dipole corrections)
   IDIPOL =      0    1-x, 2-y, 3-z, 4-all directions 
   EPSILON=  1.0000000 bulk dielectric constant

 Exchange correlation treatment:
   GGA     =    --    GGA type
   LEXCH   =     8    internal setting for exchange type
   LIBXC   =     F    Libxc                    
   VOSKOWN =     0    Vosko Wilk Nusair interpolation
   LHFCALC =     F    Hartree Fock is set to
   LHFONE  =     F    Hartree Fock one center treatment
   AEXX    =    0.0000 exact exchange contribution

 Linear response parameters
   LEPSILON=     F    determine dielectric tensor
   LRPA    =     F    only Hartree local field effects (RPA)
   LNABLA  =     F    use nabla operator in PAW spheres
   LVEL    =     F    velocity operator in full k-point grid
   CSHIFT  =0.1000    complex shift for real part using Kramers Kronig
   OMEGAMAX=  -1.0    maximum frequency
   DEG_THRESHOLD= 0.2000000E-02 threshold for treating states as degnerate
   RTIME   =   -0.100 relaxation time in fs
  (WPLASMAI=    0.000 imaginary part of plasma frequency in eV, 0.658/RTIME)
   DFIELD  = 0.0000000 0.0000000 0.0000000 field for delta impulse in time
 
  Optional k-point grid parameters
   LKPOINTS_OPT  =     F    use optional k-point grid
   KPOINTS_OPT_MODE=     1    mode for optional k-point grid
 
 Orbital magnetization related:
   ORBITALMAG=     F  switch on orbital magnetization
   LCHIMAG   =     F  perturbation theory with respect to B field
   DQ        =  0.001000  dq finite difference perturbation B field
   LLRAUG    =     F  two centre corrections for induced B field



--------------------------------------------------------------------------------------------------------


 conjugate gradient relaxation of ions
 charge density and potential will be updated during run
 spin polarized calculation
 Conjugate gradient for all bands (Freysoldt, et al. PRB 79, 241103 (2009))
 preconditioned conjugated gradient                                        
 perform sub-space diagonalisation
    before iterative eigenvector-optimisation
 modified Broyden-mixing scheme, WC =      100.0
 initial mixing is a Kerker type mixing with AMIX =  0.4000 and BMIX =      1.0000
 Hartree-type preconditioning will be used
 using additional bands            12
 reciprocal scheme for non local part
 use partial core corrections
 no Harris-corrections to forces 
 use gradient corrections 
 use of overlap-Matrix (Vanderbilt PP)
 Fermi-smearing in eV        SIGMA  =   0.05


--------------------------------------------------------------------------------------------------------


  energy-cutoff  :      520.00
  volume of cell :     4033.72
      direct lattice vectors                 reciprocal lattice vectors
    11.103800000  0.000000000  0.000000000     0.090059259  0.000000000  0.000000000
     0.000000000 11.200200000  0.000000000     0.000000000  0.089284120  0.000000000
     0.000000000  0.000000000 32.434600000     0.000000000  0.000000000  0.030831273

  length of vectors
    11.103800000 11.200200000 32.434600000     0.090059259  0.089284120  0.030831273


 
 k-points in units of 2pi/SCALE and weight: K-Spacing Value to Generate K-Mesh: 0.03
   0.00000000  0.00000000  0.00000000       1.000
 
 k-points in reciprocal lattice and weights: K-Spacing Value to Generate K-Mesh: 0.03
   0.00000000  0.00000000  0.00000000       1.000
 
 position of ions in fractional coordinates (direct lattice) 
   0.48229000  0.65286000  0.50903000
   0.48229000  0.78877000  0.50115000
   0.48229000  0.72793000  0.52332000
 
 position of ions in cartesian coordinates  (Angst):
   5.35525170  7.31216257 16.51018444
   5.35525170  8.83438175 16.25459979
   5.35525170  8.15296159 16.97367487
 


--------------------------------------------------------------------------------------------------------


 k-point   1 :   0.0000 0.0000 0.0000  plane waves:  108581

 maximum and minimum number of plane-waves per node :    108581   108581

 maximum number of plane-waves:    108581
 maximum index in each direction: 
   IXMAX=   20   IYMAX=   20   IZMAX=   60
   IXMIN=  -20   IYMIN=  -20   IZMIN=  -60


 serial   3D FFT for wavefunctions
 parallel 3D FFT for charge:
    minimum data exchange during FFTs selected (reduces bandwidth)


 total amount of memory used by VASP MPI-rank0   617380. kBytes
=======================================================================

   base      :      30000. kBytes
   nonl-proj :      19110. kBytes
   fftplans  :     264485. kBytes
   grid      :     282917. kBytes
   one-center:         18. kBytes
   wavefun   :      20850. kBytes
 
     INWAV:  cpu time      0.0001: real time      0.0002
 Broyden mixing: mesh for mixing (old mesh)
   NGX = 41   NGY = 41   NGZ =121
  (NGX  =168   NGY  =168   NGZ  =500)
  gives a total of 203401 points

 initial charge density was supplied:
 charge density of overlapping atoms calculated
 number of electron       8.0000000 magnetization       3.0000000
 keeping initial charge density in first step


--------------------------------------------------------------------------------------------------------


 Maximum index for augmentation-charges          5461 (set IRDMAX)


--------------------------------------------------------------------------------------------------------


 First call to EWALD:  gamma=   0.111
 Maximum number of real-space cells 4x 4x 2
 Maximum number of reciprocal cells 2x 2x 5

    FEWALD:  cpu time      0.2509: real time      0.0999


--------------------------------------- Iteration      1(   1)  ---------------------------------------


    POTLOK:  cpu time      0.1805: real time      0.2444
    SETDIJ:  cpu time      1.4047: real time      1.0062
    TRIAL :  cpu time      0.0618: real time      0.3412
    CORREC:  cpu time      0.0003: real time      0.0003
    --------------------------------------------
      LOOP:  cpu time      1.7021: real time      1.6533

 eigenvalue-minimisations  :    80
 total energy-change (2. order) : 0.7707295E+02  (-0.1523751E+03)
 number of electron       8.0000000 magnetization       3.0000000
 augmentation part        8.0000000 magnetization       3.0000000

 Free energy of the ion-electron system (eV)
  ---------------------------------------------------
  alpha Z        PSCENC =         0.05559414
  Ewald energy   TEWEN  =       151.33275793
  -Hartree energ DENC   =      -510.66479544
  -exchange      EXHF   =         0.00000000
  -V(xc)+E(xc)   XCENC  =        32.97894427
  PAW double counting   =       349.99468356     -351.80531939
  entropy T*S    EENTRO =        -0.11012702
  eigenvalues    EBANDS =       -52.04071204
  atomic energy  EATOM  =       457.33192828
  ---------------------------------------------------
  free energy    TOTEN  =        77.07295430 eV

  energy without entropy =       77.18308132  energy(sigma->0) =       77.12801781


--------------------------------------------------------------------------------------------------------




--------------------------------------- Iteration      1(   2)  ---------------------------------------


    TRIAL :  cpu time      0.0586: real time      0.0573
    CORREC:  cpu time      0.0002: real time      0.0002
    --------------------------------------------
      LOOP:  cpu time      0.0590: real time      0.0585

 eigenvalue-minimisations  :   104
 total energy-change (2. order) :-0.6234536E+02  (-0.5690164E+02)
 number of electron       8.0000000 magnetization       3.0000000
 augmentation part        8.0000000 magnetization       3.0000000

 Free energy of the ion-electron system (eV)
  ---------------------------------------------------
  alpha Z        PSCENC =         0.05559414
  Ewald energy   TEWEN  =       151.33275793
  -Hartree energ DENC   =      -510.66479544
  -exchange      EXHF   =         0.00000000
  -V(xc)+E(xc)   XCENC  =        32.97894427
  PAW double counting   =       349.99468356     -351.80531939
  entropy T*S    EENTRO =        -0.00000001
  eigenvalues    EBANDS =      -114.49620252
  atomic energy  EATOM  =       457.33192828
  ---------------------------------------------------
  free energy    TOTEN  =        14.72759083 eV

  energy without entropy =       14.72759083  energy(sigma->0) =       14.72759083


--------------------------------------------------------------------------------------------------------




--------------------------------------- Iteration      1(   3)  ---------------------------------------


    TRIAL :  cpu time      0.0466: real time      0.0455
    CORREC:  cpu time      0.0002: real time      0.0002
    --------------------------------------------
      LOOP:  cpu time      0.0470: real time      0.0468

 eigenvalue-minimisations  :    80
 total energy-change (2. order) :-0.2588466E+02  (-0.2578784E+02)
 number of electron       8.0000000 magnetization       3.0000000
 augmentation part        8.0000000 magnetization       3.0000000

 Free energy of the ion-electron system (eV)
  ---------------------------------------------------
  alpha Z        PSCENC =         0.05559414
  Ewald energy   TEWEN  =       151.33275793
  -Hartree energ DENC   =      -510.66479544
  -exchange      EXHF   =         0.00000000
  -V(xc)+E(xc)   XCENC  =        32.97894427
  PAW double counting   =       349.99468356     -351.80531939
  entropy T*S    EENTRO =        -0.00000000
  eigenvalues    EBANDS =      -140.38086592
  atomic energy  EATOM  =       457.33192828
  ---------------------------------------------------
  free energy    TOTEN  =       -11.15707257 eV

  energy without entropy =      -11.15707257  energy(sigma->0) =      -11.15707257


--------------------------------------------------------------------------------------------------------




--------------------------------------- Iteration      1(   4)  ---------------------------------------


    TRIAL :  cpu time      0.0534: real time      0.0522
    CORREC:  cpu time      0.0002: real time      0.0002
    --------------------------------------------
      LOOP:  cpu time      0.0537: real time      0.0532

 eigenvalue-minimisations  :    96
 total energy-change (2. order) :-0.1738303E+01  (-0.1737375E+01)
 number of electron       8.0000000 magnetization       3.0000000
 augmentation part        8.0000000 magnetization       3.0000000

 Free energy of the ion-electron system (eV)
  ---------------------------------------------------
  alpha Z        PSCENC =         0.05559414
  Ewald energy   TEWEN  =       151.33275793
  -Hartree energ DENC   =      -510.66479544
  -exchange      EXHF   =         0.00000000
  -V(xc)+E(xc)   XCENC  =        32.97894427
  PAW double counting   =       349.99468356     -351.80531939
  entropy T*S    EENTRO =        -0.00000000
  eigenvalues    EBANDS =      -142.11916888
  atomic energy  EATOM  =       457.33192828
  ---------------------------------------------------
  free energy    TOTEN  =       -12.89537553 eV

  energy without entropy =      -12.89537553  energy(sigma->0) =      -12.89537553


--------------------------------------------------------------------------------------------------------




--------------------------------------- Iteration      1(   5)  ---------------------------------------


    TRIAL :  cpu time      0.0488: real time      0.0477
    CORREC:  cpu time      0.0002: real time      0.0002
    CHARGE:  cpu time      1.5644: real time      1.3629
    --------------------------------------------
      LOOP:  cpu time      1.6136: real time      1.4117

 eigenvalue-minimisations  :    88
 total energy-change (2. order) :-0.1546043E-01  (-0.1546025E-01)
 number of electron       8.0000000 magnetization      -0.0000000
 augmentation part        0.8563137 magnetization      -0.0257001

 Free energy of the ion-electron system (eV)
  ---------------------------------------------------
  alpha Z        PSCENC =         0.05559414
  Ewald energy   TEWEN  =       151.33275793
  -Hartree energ DENC   =      -510.66479544
  -exchange      EXHF   =         0.00000000
  -V(xc)+E(xc)   XCENC  =        32.97894427
  PAW double counting   =       349.99468356     -351.80531939
  entropy T*S    EENTRO =        -0.00000000
  eigenvalues    EBANDS =      -142.13462931
  atomic energy  EATOM  =       457.33192828
  ---------------------------------------------------
  free energy    TOTEN  =       -12.91083596 eV

  energy without entropy =      -12.91083596  energy(sigma->0) =      -12.91083596


--------------------------------------------------------------------------------------------------------




--------------------------------------- Iteration      1(   6)  ---------------------------------------


    POTLOK:  cpu time      0.0843: real time      0.0827
    SETDIJ:  cpu time      1.5071: real time      1.0485
    TRIAL :  cpu time      0.0827: real time      0.0860
    CORREC:  cpu time      4.1424: real time      2.5576
    CHARGE:  cpu time      2.3446: real time      1.3731
    --------------------------------------------
      LOOP:  cpu time      8.1632: real time      5.1509

 eigenvalue-minimisations  :     0
 total energy-change (2. order) : 0.3383717E+01  (-0.3575805E+01)
 number of electron       8.0000000 magnetization      -0.0000000
 augmentation part        0.7290941 magnetization      -0.0205343

 Free energy of the ion-electron system (eV)
  ---------------------------------------------------
  alpha Z        PSCENC =         0.05559414
  Ewald energy   TEWEN  =       151.33275793
  -Hartree energ DENC   =      -600.12119146
  -exchange      EXHF   =         0.00000000
  -V(xc)+E(xc)   XCENC  =        36.92456421
  PAW double counting   =       627.38172701     -630.32124920
  entropy T*S    EENTRO =        -0.00000000
  eigenvalues    EBANDS =       -52.11124939
  atomic energy  EATOM  =       457.33192828
  ---------------------------------------------------
  free energy    TOTEN  =        -9.52711848 eV

  energy without entropy =       -9.52711848  energy(sigma->0) =       -9.52711848


--------------------------------------------------------------------------------------------------------




--------------------------------------- Iteration      1(   7)  ---------------------------------------


    POTLOK:  cpu time      0.0854: real time      0.0837
    SETDIJ:  cpu time      1.5414: real time      1.0277
    TRIAL :  cpu time      0.0536: real time      0.0426
    CORREC:  cpu time      3.6236: real time      2.4439
    CHARGE:  cpu time      1.6466: real time      1.2888
    --------------------------------------------
      LOOP:  cpu time      6.9510: real time      4.8879

 eigenvalue-minimisations  :     0
 total energy-change (2. order) :-0.3699912E+01  (-0.5670114E+00)
 number of electron       8.0000000 magnetization      -0.0000000
 augmentation part        0.6849246 magnetization      -0.0179660

 Free energy of the ion-electron system (eV)
  ---------------------------------------------------
  alpha Z        PSCENC =         0.05559414
  Ewald energy   TEWEN  =       151.33275793
  -Hartree energ DENC   =      -548.38848275
  -exchange      EXHF   =         0.00000000
  -V(xc)+E(xc)   XCENC  =        34.08286476
  PAW double counting   =       557.13705570     -559.48266185
  entropy T*S    EENTRO =        -0.00000000
  eigenvalues    EBANDS =      -105.29608628
  atomic energy  EATOM  =       457.33192828
  ---------------------------------------------------
  free energy    TOTEN  =       -13.22703007 eV

  energy without entropy =      -13.22703007  energy(sigma->0) =      -13.22703007


--------------------------------------------------------------------------------------------------------




--------------------------------------- Iteration      1(   8)  ---------------------------------------


    POTLOK:  cpu time      0.0859: real time      0.0843
    SETDIJ:  cpu time      1.5049: real time      1.0132
    TRIAL :  cpu time      0.0693: real time      0.0526
    CORREC:  cpu time      3.3718: real time      2.4488
    CHARGE:  cpu time      1.8811: real time      1.3648
    --------------------------------------------
      LOOP:  cpu time      6.9134: real time      4.9647

 eigenvalue-minimisations  :     0
 total energy-change (2. order) :-0.5665838E+00  (-0.2743601E+00)
 number of electron       8.0000000 magnetization      -0.0000000
 augmentation part        0.6855407 magnetization      -0.0129064

 Free energy of the ion-electron system (eV)
  ---------------------------------------------------
  alpha Z        PSCENC =         0.05559414
  Ewald energy   TEWEN  =       151.33275793
  -Hartree energ DENC   =      -545.44102961
  -exchange      EXHF   =         0.00000000
  -V(xc)+E(xc)   XCENC  =        33.96004536
  PAW double counting   =       551.37593216     -553.44717826
  entropy T*S    EENTRO =        -0.00000000
  eigenvalues    EBANDS =      -108.96166387
  atomic energy  EATOM  =       457.33192828
  ---------------------------------------------------
  free energy    TOTEN  =       -13.79361387 eV

  energy without entropy =      -13.79361387  energy(sigma->0) =      -13.79361387


--------------------------------------------------------------------------------------------------------




--------------------------------------- Iteration      1(   9)  ---------------------------------------


    POTLOK:  cpu time      0.0862: real time      0.0845
    SETDIJ:  cpu time      1.6194: real time      1.0041
    TRIAL :  cpu time      0.0445: real time      0.0417
    CORREC:  cpu time      3.3834: real time      2.4372
    CHARGE:  cpu time      1.7026: real time      1.3158
    --------------------------------------------
      LOOP:  cpu time      6.8409: real time      4.8883

 eigenvalue-minimisations  :     0
 total energy-change (2. order) :-0.2744117E+00  (-0.9534130E-01)
 number of electron       8.0000000 magnetization      -0.0000000
 augmentation part        0.6891906 magnetization      -0.0066564

 Free energy of the ion-electron system (eV)
  ---------------------------------------------------
  alpha Z        PSCENC =         0.05559414
  Ewald energy   TEWEN  =       151.33275793
  -Hartree energ DENC   =      -547.32954274
  -exchange      EXHF   =         0.00000000
  -V(xc)+E(xc)   XCENC  =        34.10732606
  PAW double counting   =       551.22833979     -553.27491404
  entropy T*S    EENTRO =        -0.00000000
  eigenvalues    EBANDS =      -107.51951500
  atomic energy  EATOM  =       457.33192828
  ---------------------------------------------------
  free energy    TOTEN  =       -14.06802557 eV

  energy without entropy =      -14.06802557  energy(sigma->0) =      -14.06802557


--------------------------------------------------------------------------------------------------------




--------------------------------------- Iteration      1(  10)  ---------------------------------------


    POTLOK:  cpu time      0.0877: real time      0.0860
    SETDIJ:  cpu time      1.6735: real time      1.0491
    TRIAL :  cpu time      0.0599: real time      0.0519
    CORREC:  cpu time      3.4680: real time      2.5036
    CHARGE:  cpu time      1.7228: real time      1.3369
    --------------------------------------------
      LOOP:  cpu time      7.0124: real time      5.0289

 eigenvalue-minimisations  :     0
 total energy-change (2. order) :-0.9492030E-01  (-0.2789220E-01)
 number of electron       8.0000000 magnetization       0.0000000
 augmentation part        0.6899708 magnetization      -0.0024218

 Free energy of the ion-electron system (eV)
  ---------------------------------------------------
  alpha Z        PSCENC =         0.05559414
  Ewald energy   TEWEN  =       151.33275793
  -Hartree energ DENC   =      -546.23486557
  -exchange      EXHF   =         0.00000000
  -V(xc)+E(xc)   XCENC  =        34.05445984
  PAW double counting   =       546.66490757     -548.73905889
  entropy T*S    EENTRO =        -0.00000000
  eigenvalues    EBANDS =      -108.62866917
  atomic energy  EATOM  =       457.33192828
  ---------------------------------------------------
  free energy    TOTEN  =       -14.16294587 eV

  energy without entropy =      -14.16294587  energy(sigma->0) =      -14.16294587


--------------------------------------------------------------------------------------------------------




--------------------------------------- Iteration      1(  11)  ---------------------------------------


    POTLOK:  cpu time      0.0843: real time      0.0839
    SETDIJ:  cpu time      1.5561: real time      1.0200
    TRIAL :  cpu time      0.0644: real time      0.0581
    CORREC:  cpu time      3.8569: real time      2.5233
    CHARGE:  cpu time      1.6774: real time      1.3304
    --------------------------------------------
      LOOP:  cpu time      7.2409: real time      5.0181

 eigenvalue-minimisations  :     0
 total energy-change (2. order) :-0.2781087E-01  (-0.8372193E-02)
 number of electron       8.0000000 magnetization       0.0000000
 augmentation part        0.6901264 magnetization      -0.0002680

 Free energy of the ion-electron system (eV)
  ---------------------------------------------------
  alpha Z        PSCENC =         0.05559414
  Ewald energy   TEWEN  =       151.33275793
  -Hartree energ DENC   =      -545.93466949
  -exchange      EXHF   =         0.00000000
  -V(xc)+E(xc)   XCENC  =        34.03503068
  PAW double counting   =       544.11971370     -546.20425644
  entropy T*S    EENTRO =        -0.00000000
  eigenvalues    EBANDS =      -108.92685555
  atomic energy  EATOM  =       457.33192828
  ---------------------------------------------------
  free energy    TOTEN  =       -14.19075675 eV

  energy without entropy =      -14.19075675  energy(sigma->0) =      -14.19075675


--------------------------------------------------------------------------------------------------------




--------------------------------------- Iteration      1(  12)  ---------------------------------------


    POTLOK:  cpu time      0.0847: real time      0.0830
    SETDIJ:  cpu time      1.6703: real time      1.0286
    TRIAL :  cpu time      0.0607: real time      0.0531
    CORREC:  cpu time      3.3239: real time      2.4768
    CHARGE:  cpu time      1.8672: real time      1.3600
    --------------------------------------------
      LOOP:  cpu time      7.0085: real time      5.0039

 eigenvalue-minimisations  :     0
 total energy-change (2. order) :-0.8351034E-02  (-0.2463673E-02)
 number of electron       8.0000000 magnetization       0.0000000
 augmentation part        0.6903931 magnetization       0.0004956

 Free energy of the ion-electron system (eV)
  ---------------------------------------------------
  alpha Z        PSCENC =         0.05559414
  Ewald energy   TEWEN  =       151.33275793
  -Hartree energ DENC   =      -545.47454022
  -exchange      EXHF   =         0.00000000
  -V(xc)+E(xc)   XCENC  =        34.00721738
  PAW double counting   =       542.56772655     -544.65894953
  entropy T*S    EENTRO =        -0.00000000
  eigenvalues    EBANDS =      -109.36084232
  atomic energy  EATOM  =       457.33192828
  ---------------------------------------------------
  free energy    TOTEN  =       -14.19910778 eV

  energy without entropy =      -14.19910778  energy(sigma->0) =      -14.19910778


--------------------------------------------------------------------------------------------------------




--------------------------------------- Iteration      1(  13)  ---------------------------------------


    POTLOK:  cpu time      0.0856: real time      0.0850
    SETDIJ:  cpu time      1.5199: real time      1.0318
    TRIAL :  cpu time      0.0714: real time      0.0596
    CORREC:  cpu time      3.1926: real time      2.3944
    CHARGE:  cpu time      1.7762: real time      1.3289
    --------------------------------------------
      LOOP:  cpu time      6.6495: real time      4.9046

 eigenvalue-minimisations  :     0
 total energy-change (2. order) :-0.2462765E-02  (-0.7420055E-03)
 number of electron       8.0000000 magnetization       0.0000000
 augmentation part        0.6899404 magnetization       0.0006153

 Free energy of the ion-electron system (eV)
  ---------------------------------------------------
  alpha Z        PSCENC =         0.05559414
  Ewald energy   TEWEN  =       151.33275793
  -Hartree energ DENC   =      -545.47904989
  -exchange      EXHF   =         0.00000000
  -V(xc)+E(xc)   XCENC  =        34.00591292
  PAW double counting   =       542.55934189     -544.65362956
  entropy T*S    EENTRO =        -0.00000000
  eigenvalues    EBANDS =      -109.35442625
  atomic energy  EATOM  =       457.33192828
  ---------------------------------------------------
  free energy    TOTEN  =       -14.20157055 eV

  energy without entropy =      -14.20157055  energy(sigma->0) =      -14.20157055


--------------------------------------------------------------------------------------------------------




--------------------------------------- Iteration      1(  14)  ---------------------------------------


    POTLOK:  cpu time      0.0867: real time      0.0851
    SETDIJ:  cpu time      1.6180: real time      1.0305
    TRIAL :  cpu time      0.0670: real time      0.0606
    CORREC:  cpu time      3.4755: real time      2.5105
    CHARGE:  cpu time      1.6659: real time      1.3186
    --------------------------------------------
      LOOP:  cpu time      6.9144: real time      5.0074

 eigenvalue-minimisations  :     0
 total energy-change (2. order) :-0.7421685E-03  (-0.2390138E-03)
 number of electron       8.0000000 magnetization       0.0000000
 augmentation part        0.6898766 magnetization       0.0004647

 Free energy of the ion-electron system (eV)
  ---------------------------------------------------
  alpha Z        PSCENC =         0.05559414
  Ewald energy   TEWEN  =       151.33275793
  -Hartree energ DENC   =      -545.35670270
  -exchange      EXHF   =         0.00000000
  -V(xc)+E(xc)   XCENC  =        33.99808716
  PAW double counting   =       542.58143200     -544.67388989
  entropy T*S    EENTRO =        -0.00000000
  eigenvalues    EBANDS =      -109.47151963
  atomic energy  EATOM  =       457.33192828
  ---------------------------------------------------
  free energy    TOTEN  =       -14.20231271 eV

  energy without entropy =      -14.20231271  energy(sigma->0) =      -14.20231271


--------------------------------------------------------------------------------------------------------




--------------------------------------- Iteration      1(  15)  ---------------------------------------


    POTLOK:  cpu time      0.0865: real time      0.0847
    SETDIJ:  cpu time      1.5208: real time      0.9955
    TRIAL :  cpu time      0.0862: real time      0.0724
    CORREC:  cpu time      4.0907: real time      2.5152
    CHARGE:  cpu time      2.5635: real time      1.4045
    --------------------------------------------
      LOOP:  cpu time      8.3493: real time      5.0745

 eigenvalue-minimisations  :     0
 total energy-change (2. order) :-0.2389721E-03  (-0.7990095E-04)
 number of electron       8.0000000 magnetization       0.0000000
 augmentation part        0.6897701 magnetization       0.0002596

 Free energy of the ion-electron system (eV)
  ---------------------------------------------------
  alpha Z        PSCENC =         0.05559414
  Ewald energy   TEWEN  =       151.33275793
  -Hartree energ DENC   =      -545.39970043
  -exchange      EXHF   =         0.00000000
  -V(xc)+E(xc)   XCENC  =        34.00026535
  PAW double counting   =       542.83343283     -544.92494506
  entropy T*S    EENTRO =        -0.00000000
  eigenvalues    EBANDS =      -109.43188473
  atomic energy  EATOM  =       457.33192828
  ---------------------------------------------------
  free energy    TOTEN  =       -14.20255169 eV

  energy without entropy =      -14.20255169  energy(sigma->0) =      -14.20255169


--------------------------------------------------------------------------------------------------------




--------------------------------------- Iteration      1(  16)  ---------------------------------------


    POTLOK:  cpu time      0.0878: real time      0.0860
    SETDIJ:  cpu time      1.6574: real time      1.0275
    TRIAL :  cpu time      0.0593: real time      0.0458
    CORREC:  cpu time      3.5100: real time      2.4218
    CHARGE:  cpu time      1.7027: real time      1.3217
    --------------------------------------------
      LOOP:  cpu time      7.0178: real time      4.9045

 eigenvalue-minimisations  :     0
 total energy-change (2. order) :-0.7984849E-04  (-0.2522072E-04)
 number of electron       8.0000000 magnetization       0.0000000
 augmentation part        0.6898246 magnetization       0.0001115

 Free energy of the ion-electron system (eV)
  ---------------------------------------------------
  alpha Z        PSCENC =         0.05559414
  Ewald energy   TEWEN  =       151.33275793
  -Hartree energ DENC   =      -545.37006469
  -exchange      EXHF   =         0.00000000
  -V(xc)+E(xc)   XCENC  =        33.99865249
  PAW double counting   =       542.87771171     -544.96850150
  entropy T*S    EENTRO =        -0.00000000
  eigenvalues    EBANDS =      -109.46070990
  atomic energy  EATOM  =       457.33192828
  ---------------------------------------------------
  free energy    TOTEN  =       -14.20263153 eV

  energy without entropy =      -14.20263153  energy(sigma->0) =      -14.20263153


--------------------------------------------------------------------------------------------------------




--------------------------------------- Iteration      1(  17)  ---------------------------------------


    POTLOK:  cpu time      0.0848: real time      0.0832
    SETDIJ:  cpu time      1.5587: real time      1.0435
    TRIAL :  cpu time      0.0602: real time      0.0505
    CORREC:  cpu time      3.3925: real time      2.4737
    CHARGE:  cpu time      1.5926: real time      1.2849
    --------------------------------------------
      LOOP:  cpu time      6.6900: real time      4.9376

 eigenvalue-minimisations  :     0
 total energy-change (2. order) :-0.2516732E-04  (-0.6809977E-05)
 number of electron       8.0000000 magnetization       0.0000000
 augmentation part        0.6898188 magnetization       0.0000342

 Free energy of the ion-electron system (eV)
  ---------------------------------------------------
  alpha Z        PSCENC =         0.05559414
  Ewald energy   TEWEN  =       151.33275793
  -Hartree energ DENC   =      -545.39383420
  -exchange      EXHF   =         0.00000000
  -V(xc)+E(xc)   XCENC  =        34.00004068
  PAW double counting   =       542.92421231     -545.01509895
  entropy T*S    EENTRO =        -0.00000000
  eigenvalues    EBANDS =      -109.43825689
  atomic energy  EATOM  =       457.33192828
  ---------------------------------------------------
  free energy    TOTEN  =       -14.20265670 eV

  energy without entropy =      -14.20265670  energy(sigma->0) =      -14.20265670


--------------------------------------------------------------------------------------------------------




--------------------------------------- Iteration      1(  18)  ---------------------------------------


    POTLOK:  cpu time      0.0870: real time      0.0866
    SETDIJ:  cpu time      1.6889: real time      1.0827
    TRIAL :  cpu time      0.0560: real time      0.0487
    CORREC:  cpu time      3.6841: real time      2.5224
    CHARGE:  cpu time      1.7431: real time      1.3247
    --------------------------------------------
      LOOP:  cpu time      7.2617: real time      5.0687

 eigenvalue-minimisations  :     0
 total energy-change (2. order) :-0.6809882E-05  (-0.1798709E-05)
 number of electron       8.0000000 magnetization       0.0000000
 augmentation part        0.6898459 magnetization       0.0000040

 Free energy of the ion-electron system (eV)
  ---------------------------------------------------
  alpha Z        PSCENC =         0.05559414
  Ewald energy   TEWEN  =       151.33275793
  -Hartree energ DENC   =      -545.38792080
  -exchange      EXHF   =         0.00000000
  -V(xc)+E(xc)   XCENC  =        33.99973623
  PAW double counting   =       542.89757839     -544.98847167
  entropy T*S    EENTRO =        -0.00000000
  eigenvalues    EBANDS =      -109.44386601
  atomic energy  EATOM  =       457.33192828
  ---------------------------------------------------
  free energy    TOTEN  =       -14.20266351 eV

  energy without entropy =      -14.20266351  energy(sigma->0) =      -14.20266351


--------------------------------------------------------------------------------------------------------




--------------------------------------- Iteration      1(  19)  ---------------------------------------


    POTLOK:  cpu time      0.0860: real time      0.0841
    SETDIJ:  cpu time      1.6436: real time      1.0459
    TRIAL :  cpu time      0.0649: real time      0.0653
    CORREC:  cpu time      3.3355: real time      2.3970
    CHARGE:  cpu time      1.7332: real time      1.3061
    --------------------------------------------
      LOOP:  cpu time      6.8637: real time      4.8996

 eigenvalue-minimisations  :     0
 total energy-change (2. order) :-0.1799003E-05  (-0.4873090E-06)
 number of electron       8.0000000 magnetization       0.0000000
 augmentation part        0.6898441 magnetization      -0.0000055

 Free energy of the ion-electron system (eV)
  ---------------------------------------------------
  alpha Z        PSCENC =         0.05559414
  Ewald energy   TEWEN  =       151.33275793
  -Hartree energ DENC   =      -545.39643849
  -exchange      EXHF   =         0.00000000
  -V(xc)+E(xc)   XCENC  =        34.00022663
  PAW double counting   =       542.89605290     -544.98708869
  entropy T*S    EENTRO =        -0.00000000
  eigenvalues    EBANDS =      -109.43569801
  atomic energy  EATOM  =       457.33192828
  ---------------------------------------------------
  free energy    TOTEN  =       -14.20266531 eV

  energy without entropy =      -14.20266531  energy(sigma->0) =      -14.20266531


--------------------------------------------------------------------------------------------------------




--------------------------------------- Iteration      1(  20)  ---------------------------------------


    POTLOK:  cpu time      0.0865: real time      0.0848
    SETDIJ:  cpu time      1.4317: real time      0.9930
    TRIAL :  cpu time      0.0580: real time      0.0498
    CORREC:  cpu time      3.6812: real time      2.5192
    EDDIAG:  cpu time      0.0095: real time      0.0094
    CHARGE:  cpu time      1.6009: real time      1.2911
    --------------------------------------------
      LOOP:  cpu time      6.8711: real time      4.9514

 eigenvalue-minimisations  :     0
 total energy-change (2. order) :-0.4953058E-06  (-0.1488665E-06)
 number of electron       8.0000000 magnetization      -0.0000000
 augmentation part        0.6898517 magnetization      -0.0000057

 Free energy of the ion-electron system (eV)
  ---------------------------------------------------
  alpha Z        PSCENC =         0.05559414
  Ewald energy   TEWEN  =       151.33275793
  -Hartree energ DENC   =      -545.39455304
  -exchange      EXHF   =         0.00000000
  -V(xc)+E(xc)   XCENC  =        34.00012296
  PAW double counting   =       542.88667374     -544.97772800
  entropy T*S    EENTRO =        -0.00000000
  eigenvalues    EBANDS =      -109.43746182
  atomic energy  EATOM  =       457.33192828
  ---------------------------------------------------
  free energy    TOTEN  =       -14.20266581 eV

  energy without entropy =      -14.20266581  energy(sigma->0) =      -14.20266581


--------------------------------------------------------------------------------------------------------


  average scaling for gradient   1.4661


 average (electrostatic) potential at core
  the test charge radii are     0.5201  0.7215
  (the norm of the test charge is              1.0000)
       1 -44.8454       2 -44.4834       3 -80.5499
 
 
 
 E-fermi :  -5.9374     XC(G=0):  -0.1437     alpha+bet : -0.0323

 Fermi energy:        -5.9374024785

 spin component 1

 k-point     1 :       0.0000    0.0000    0.0000
  band No.  band energies     occupation 
      1     -25.2500      1.00000
      2     -13.0554      1.00000
      3      -9.2363      1.00000
      4      -7.1761      1.00000
      5      -1.0411      0.00000
      6       0.0010      0.00000
      7       0.1605      0.00000
      8       0.3373      0.00000
      9       0.4910      0.00000
     10       0.5546      0.00000
     11       0.6823      0.00000
     12       0.8852      0.00000
     13       1.0720      0.00000
     14       1.1579      0.00000
     15       1.2699      0.00000
     16       1.6482      0.00000
 Fermi energy:        -5.9374024785

 spin component 2

 k-point     1 :       0.0000    0.0000    0.0000
  band No.  band energies     occupation 
      1     -25.2500      1.00000
      2     -13.0554      1.00000
      3      -9.2363      1.00000
      4      -7.1762      1.00000
      5      -1.0411      0.00000
      6       0.0010      0.00000
      7       0.1605      0.00000
      8       0.3374      0.00000
      9       0.4912      0.00000
     10       0.5572      0.00000
     11       0.6811      0.00000
     12       0.8863      0.00000
     13       1.0841      0.00000
     14       1.1587      0.00000
     15       1.2478      0.00000
     16       1.2748      0.00000


--------------------------------------------------------------------------------------------------------


 soft charge-density along one line, spin component            1
         0         1         2         3         4         5         6         7         8         9
 total charge-density along one line
 
 soft charge-density along one line, spin component            2
         0         1         2         3         4         5         6         7         8         9
 total charge-density along one line
 
 pseudopotential strength for first ion, spin component:            1
 -2.385  -4.119  -0.003  -0.001   0.000
 -4.119  -7.028  -0.008  -0.004   0.000
 -0.003  -0.008  -0.315   0.004  -0.000
 -0.001  -0.004   0.004  -0.320  -0.000
  0.000   0.000  -0.000  -0.000  -0.323
 pseudopotential strength for first ion, spin component:            2
 -2.385  -4.119  -0.003  -0.001   0.000
 -4.119  -7.028  -0.008  -0.004   0.000
 -0.003  -0.008  -0.315   0.004  -0.000
 -0.001  -0.004   0.004  -0.320  -0.000
  0.000   0.000  -0.000  -0.000  -0.323
 total augmentation occupancy for first ion, spin component:            1
  3.852  -0.815   0.662   0.352   0.000
 -0.815   0.226  -0.133  -0.076   0.000
  0.662  -0.133   0.119   0.050   0.000
  0.352  -0.076   0.050   0.056   0.000
  0.000   0.000   0.000   0.000   0.043
 total augmentation occupancy for first ion, spin component:            2
 -0.000   0.000  -0.000  -0.000   0.000
  0.000  -0.000   0.000   0.000   0.000
 -0.000   0.000   0.000   0.000   0.000
 -0.000   0.000   0.000   0.000   0.000
  0.000   0.000   0.000   0.000   0.000


------------------------ aborting loop because EDIFF is reached ----------------------------------------





 total charge

# of ion       s       p       d       tot
------------------------------------------
    1        0.640   0.129   0.000   0.769
    2        0.606   0.107   0.000   0.713
    3        1.566   3.596   0.000   5.162
--------------------------------------------------
tot          2.812   3.832   0.000   6.644



 magnetization (x)

# of ion       s       p       d       tot
------------------------------------------
    1        0.000   0.000   0.000   0.000
    2        0.000   0.000   0.000   0.000
    3       -0.000  -0.000   0.000  -0.000
--------------------------------------------------
tot          0.000  -0.000   0.000   0.000
 
    FORLOC:  cpu time      0.0129: real time      0.0127
    FORNL :  cpu time      9.4898: real time      6.1018
    STRESS:  cpu time     29.1186: real time     19.5010
    FORCOR:  cpu time      0.0837: real time      0.0717
    OFIELD:  cpu time      0.0062: real time      0.0062

  FORCE on cell =-STRESS in cart. coord.  units (eV):
  Direction    XX          YY          ZZ          XY          YZ          ZX
  --------------------------------------------------------------------------------------
  Alpha Z     0.05559     0.05559     0.05559
  Ewald      45.41173   164.27099   -58.35000    -0.00000    -6.97597     0.00000
  Hartree   227.61308   247.91358    69.87072    -0.00000    -1.52200    -0.00000
  E(xc)     -36.39555   -35.90663   -36.09661     0.00000    -0.03061     0.00000
  Local    -382.09330  -485.81224   -99.99018     0.00000     6.89747     0.00000
  n-local   -30.81652   -30.19664   -30.86749     0.00000    -0.28814     0.00000
  augment     8.16144     5.79729     6.72045    -0.00000     0.13875    -0.00000
  Kinetic   168.01258   133.86838   148.29267    -0.00000     2.47618    -0.00000
  Fock        0.00000     0.00000     0.00000     0.00000     0.00000     0.00000
  -------------------------------------------------------------------------------------
  Total      -0.05096    -0.00966    -0.36486     0.00000     0.69568     0.00000
  in kB      -0.02024    -0.00384    -0.14492     0.00000     0.27632     0.00000
  external pressure =       -0.06 kB  Pullay stress =        0.00 kB


 VOLUME and BASIS-vectors are now :
 -----------------------------------------------------------------------------
  energy-cutoff  :      520.00
  volume of cell :     4033.72
      direct lattice vectors                 reciprocal lattice vectors
    11.103800000  0.000000000  0.000000000     0.090059259  0.000000000  0.000000000
     0.000000000 11.200200000  0.000000000     0.000000000  0.089284120  0.000000000
     0.000000000  0.000000000 32.434600000     0.000000000  0.000000000  0.030831273

  length of vectors
    11.103800000 11.200200000 32.434600000     0.090059259  0.089284120  0.030831273


 FORCES acting on ions:
    Electron-Ion                     Ewald-Force                    Non-Local-Force
 -----------------------------------------------------------------------------------------------
   0.869E-08 0.795E+02 0.401E+02   0.111E-15 -.877E+02 -.444E+02   -.209E-22 0.774E+01 0.393E+01
   0.623E-08 -.613E+02 0.603E+02   -.808E-16 0.663E+02 -.651E+02   0.171E-22 -.555E+01 0.544E+01
   0.141E-06 -.120E+02 -.616E+02   -.498E-16 0.215E+02 0.110E+03   0.838E-21 -.837E+01 -.482E+02
 -----------------------------------------------------------------------------------------------
   0.153E-06 0.618E+01 0.389E+02   -.193E-16 0.000E+00 -.142E-13   0.834E-21 -.618E+01 -.389E+02
 
 
 POSITION                                       TOTAL-FORCE (eV/Angst)
 -----------------------------------------------------------------------------------
      5.35525      7.31216     16.51018         0.000000     -0.543906     -0.316627
      5.35525      8.83438     16.25460         0.000000     -0.616071      0.626065
      5.35525      8.15296     16.97367        -0.000000      1.159978     -0.309437
 -----------------------------------------------------------------------------------
    total drift:                                0.000000     -0.000106      0.000026


--------------------------------------------------------------------------------------------------------



  FREE ENERGIE OF THE ION-ELECTRON SYSTEM (eV)
  ---------------------------------------------------
  free  energy   TOTEN  =       -14.20266581 eV

  energy  without entropy=      -14.20266581  energy(sigma->0) =      -14.20266581
 


--------------------------------------------------------------------------------------------------------


    POTLOK:  cpu time      1.7505: real time      1.1639


--------------------------------------------------------------------------------------------------------




--------------------------------------------------------------------------------------------------------


    WAVPRE:  cpu time     13.6406: real time     13.3856
    FEWALD:  cpu time      0.2281: real time      0.0748
    ORTHCH:  cpu time      0.0219: real time      0.0219
    POTLOK:  cpu time      6.4783: real time      4.0175
    EDDIAG:  cpu time      0.0351: real time      0.0276
    CHARGE:  cpu time      2.4979: real time      1.4864
     LOOP+:  cpu time    175.3826: real time    124.8890


--------------------------------------- Iteration      2(   1)  ---------------------------------------


    POTLOK:  cpu time      0.0890: real time      0.0873
    SETDIJ:  cpu time      1.4081: real time      0.9905
    TRIAL :  cpu time      0.0798: real time      0.0649
    CORREC:  cpu time      3.5078: real time      2.4655
    CHARGE:  cpu time      2.0623: real time      1.3579
    --------------------------------------------
      LOOP:  cpu time      7.1928: real time      5.0118

 eigenvalue-minimisations  :     0
 total energy-change (2. order) : 0.3043818E+01  (-0.2107796E+01)
 number of electron       8.0000000 magnetization      -0.0000000
 augmentation part        0.6868909 magnetization      -0.0002015

 Free energy of the ion-electron system (eV)
  ---------------------------------------------------
  alpha Z        PSCENC =         0.05559414
  Ewald energy   TEWEN  =       153.89711841
  -Hartree energ DENC   =      -543.22262958
  -exchange      EXHF   =         0.00000000
  -V(xc)+E(xc)   XCENC  =        33.88382984
  PAW double counting   =       548.44185171     -550.42263041
  entropy T*S    EENTRO =        -0.00000000
  eigenvalues    EBANDS =      -111.12390960
  atomic energy  EATOM  =       457.33192828
  ---------------------------------------------------
  free energy    TOTEN  =       -11.15884721 eV

  energy without entropy =      -11.15884721  energy(sigma->0) =      -11.15884721


--------------------------------------------------------------------------------------------------------




--------------------------------------- Iteration      2(   2)  ---------------------------------------


    POTLOK:  cpu time      0.0838: real time      0.0823
    SETDIJ:  cpu time      1.6588: real time      1.0495
    TRIAL :  cpu time      0.0544: real time      0.0417
    CORREC:  cpu time      3.8804: real time      2.5106
    CHARGE:  cpu time      1.6682: real time      1.3176
    --------------------------------------------
      LOOP:  cpu time      7.3486: real time      5.0055

 eigenvalue-minimisations  :     0
 total energy-change (2. order) :-0.2109442E+01  (-0.5628485E+00)
 number of electron       8.0000000 magnetization      -0.0000000
 augmentation part        0.6955697 magnetization      -0.0001706

 Free energy of the ion-electron system (eV)
  ---------------------------------------------------
  alpha Z        PSCENC =         0.05559414
  Ewald energy   TEWEN  =       153.89711841
  -Hartree energ DENC   =      -545.52645748
  -exchange      EXHF   =         0.00000000
  -V(xc)+E(xc)   XCENC  =        34.00850984
  PAW double counting   =       545.43950641     -547.49387499
  entropy T*S    EENTRO =        -0.00000000
  eigenvalues    EBANDS =      -110.98061393
  atomic energy  EATOM  =       457.33192828
  ---------------------------------------------------
  free energy    TOTEN  =       -13.26828932 eV

  energy without entropy =      -13.26828932  energy(sigma->0) =      -13.26828932


--------------------------------------------------------------------------------------------------------




--------------------------------------- Iteration      2(   3)  ---------------------------------------


    POTLOK:  cpu time      0.0868: real time      0.0851
    SETDIJ:  cpu time      1.5495: real time      1.0208
    TRIAL :  cpu time      0.0660: real time      0.0556
    CORREC:  cpu time      4.1384: real time      2.5732
    CHARGE:  cpu time      2.4889: real time      1.4037
    --------------------------------------------
      LOOP:  cpu time      8.3300: real time      5.1396

 eigenvalue-minimisations  :     0
 total energy-change (2. order) :-0.5611808E+00  (-0.1171815E+00)
 number of electron       8.0000000 magnetization      -0.0000000
 augmentation part        0.6964569 magnetization      -0.0001074

 Free energy of the ion-electron system (eV)
  ---------------------------------------------------
  alpha Z        PSCENC =         0.05559414
  Ewald energy   TEWEN  =       153.89711841
  -Hartree energ DENC   =      -546.95520360
  -exchange      EXHF   =         0.00000000
  -V(xc)+E(xc)   XCENC  =        34.08418288
  PAW double counting   =       548.44781482     -550.55914795
  entropy T*S    EENTRO =        -0.00000000
  eigenvalues    EBANDS =      -110.13175706
  atomic energy  EATOM  =       457.33192828
  ---------------------------------------------------
  free energy    TOTEN  =       -13.82947009 eV

  energy without entropy =      -13.82947009  energy(sigma->0) =      -13.82947009


--------------------------------------------------------------------------------------------------------




--------------------------------------- Iteration      2(   4)  ---------------------------------------


    POTLOK:  cpu time      0.0842: real time      0.0838
    SETDIJ:  cpu time      1.5836: real time      1.0317
    TRIAL :  cpu time      0.0593: real time      0.0508
    CORREC:  cpu time      3.3379: real time      2.4125
    CHARGE:  cpu time      1.9524: real time      1.3305
    --------------------------------------------
      LOOP:  cpu time      7.0213: real time      4.9141

 eigenvalue-minimisations  :     0
 total energy-change (2. order) :-0.1171173E+00  (-0.2158710E-01)
 number of electron       8.0000000 magnetization      -0.0000000
 augmentation part        0.6959341 magnetization      -0.0000782

 Free energy of the ion-electron system (eV)
  ---------------------------------------------------
  alpha Z        PSCENC =         0.05559414
  Ewald energy   TEWEN  =       153.89711841
  -Hartree energ DENC   =      -547.11980098
  -exchange      EXHF   =         0.00000000
  -V(xc)+E(xc)   XCENC  =        34.09308127
  PAW double counting   =       550.60624628     -552.72305028
  entropy T*S    EENTRO =        -0.00000000
  eigenvalues    EBANDS =      -110.08770448
  atomic energy  EATOM  =       457.33192828
  ---------------------------------------------------
  free energy    TOTEN  =       -13.94658737 eV

  energy without entropy =      -13.94658737  energy(sigma->0) =      -13.94658737


--------------------------------------------------------------------------------------------------------




--------------------------------------- Iteration      2(   5)  ---------------------------------------


    POTLOK:  cpu time      0.0852: real time      0.0835
    SETDIJ:  cpu time      1.5832: real time      1.0215
    TRIAL :  cpu time      0.0650: real time      0.0558
    CORREC:  cpu time      3.4828: real time      2.4742
    CHARGE:  cpu time      2.1599: real time      1.3546
    --------------------------------------------
      LOOP:  cpu time      7.3795: real time      4.9938

 eigenvalue-minimisations  :     0
 total energy-change (2. order) :-0.2158338E-01  (-0.4958597E-02)
 number of electron       8.0000000 magnetization      -0.0000000
 augmentation part        0.6963809 magnetization      -0.0000539

 Free energy of the ion-electron system (eV)
  ---------------------------------------------------
  alpha Z        PSCENC =         0.05559414
  Ewald energy   TEWEN  =       153.89711841
  -Hartree energ DENC   =      -546.96821814
  -exchange      EXHF   =         0.00000000
  -V(xc)+E(xc)   XCENC  =        34.08513910
  PAW double counting   =       551.52178133     -553.63494409
  entropy T*S    EENTRO =        -0.00000000
  eigenvalues    EBANDS =      -110.25656978
  atomic energy  EATOM  =       457.33192828
  ---------------------------------------------------
  free energy    TOTEN  =       -13.96817075 eV

  energy without entropy =      -13.96817075  energy(sigma->0) =      -13.96817075


--------------------------------------------------------------------------------------------------------




--------------------------------------- Iteration      2(   6)  ---------------------------------------


    POTLOK:  cpu time      0.0860: real time      0.0843
    SETDIJ:  cpu time      1.6267: real time      0.9992
    TRIAL :  cpu time      0.0447: real time      0.0372
    CORREC:  cpu time      4.4240: real time      2.5242
    CHARGE:  cpu time      1.8931: real time      1.3231
    --------------------------------------------
      LOOP:  cpu time      8.0754: real time      4.9694

 eigenvalue-minimisations  :     0
 total energy-change (2. order) :-0.4958580E-02  (-0.1313668E-02)
 number of electron       8.0000000 magnetization      -0.0000000
 augmentation part        0.6963364 magnetization      -0.0000328

 Free energy of the ion-electron system (eV)
  ---------------------------------------------------
  alpha Z        PSCENC =         0.05559414
  Ewald energy   TEWEN  =       153.89711841
  -Hartree energ DENC   =      -547.20170187
  -exchange      EXHF   =         0.00000000
  -V(xc)+E(xc)   XCENC  =        34.09822957
  PAW double counting   =       552.58287247     -554.69629536
  entropy T*S    EENTRO =        -0.00000000
  eigenvalues    EBANDS =      -110.04087496
  atomic energy  EATOM  =       457.33192828
  ---------------------------------------------------
  free energy    TOTEN  =       -13.97312933 eV

  energy without entropy =      -13.97312933  energy(sigma->0) =      -13.97312933


--------------------------------------------------------------------------------------------------------




--------------------------------------- Iteration      2(   7)  ---------------------------------------


    POTLOK:  cpu time      0.0861: real time      0.0844
    SETDIJ:  cpu time      1.6164: real time      1.0434
    TRIAL :  cpu time      0.0708: real time      0.0606
    CORREC:  cpu time      4.6036: real time      2.5619
    CHARGE:  cpu time      1.6197: real time      1.3197
    --------------------------------------------
      LOOP:  cpu time      7.9974: real time      5.0715

 eigenvalue-minimisations  :     0
 total energy-change (2. order) :-0.1314017E-02  (-0.4703667E-03)
 number of electron       8.0000000 magnetization      -0.0000000
 augmentation part        0.6967491 magnetization      -0.0000173

 Free energy of the ion-electron system (eV)
  ---------------------------------------------------
  alpha Z        PSCENC =         0.05559414
  Ewald energy   TEWEN  =       153.89711841
  -Hartree energ DENC   =      -547.12128264
  -exchange      EXHF   =         0.00000000
  -V(xc)+E(xc)   XCENC  =        34.09356065
  PAW double counting   =       552.83298542     -554.94605880
  entropy T*S    EENTRO =        -0.00000000
  eigenvalues    EBANDS =      -110.11828880
  atomic energy  EATOM  =       457.33192828
  ---------------------------------------------------
  free energy    TOTEN  =       -13.97444335 eV

  energy without entropy =      -13.97444335  energy(sigma->0) =      -13.97444335


--------------------------------------------------------------------------------------------------------




--------------------------------------- Iteration      2(   8)  ---------------------------------------


    POTLOK:  cpu time      0.0848: real time      0.0832
    SETDIJ:  cpu time      1.7386: real time      1.0067
    TRIAL :  cpu time      0.0509: real time      0.0408
    CORREC:  cpu time      4.4334: real time      2.5530
    CHARGE:  cpu time      1.9699: real time      1.3571
    --------------------------------------------
      LOOP:  cpu time      8.2809: real time      5.0449

 eigenvalue-minimisations  :     0
 total energy-change (2. order) :-0.4708310E-03  (-0.1627866E-03)
 number of electron       8.0000000 magnetization      -0.0000000
 augmentation part        0.6967904 magnetization      -0.0000072

 Free energy of the ion-electron system (eV)
  ---------------------------------------------------
  alpha Z        PSCENC =         0.05559414
  Ewald energy   TEWEN  =       153.89711841
  -Hartree energ DENC   =      -547.23286951
  -exchange      EXHF   =         0.00000000
  -V(xc)+E(xc)   XCENC  =        34.09973977
  PAW double counting   =       553.16520082     -555.27994478
  entropy T*S    EENTRO =        -0.00000000
  eigenvalues    EBANDS =      -110.01168131
  atomic energy  EATOM  =       457.33192828
  ---------------------------------------------------
  free energy    TOTEN  =       -13.97491418 eV

  energy without entropy =      -13.97491418  energy(sigma->0) =      -13.97491418


--------------------------------------------------------------------------------------------------------




--------------------------------------- Iteration      2(   9)  ---------------------------------------


    POTLOK:  cpu time      0.0858: real time      0.0844
    SETDIJ:  cpu time      1.5235: real time      1.0065
    TRIAL :  cpu time      0.0576: real time      0.0463
    CORREC:  cpu time      3.4149: real time      2.4189
    CHARGE:  cpu time      1.7914: real time      1.3114
    --------------------------------------------
      LOOP:  cpu time      6.8746: real time      4.8695

 eigenvalue-minimisations  :     0
 total energy-change (2. order) :-0.1629924E-03  (-0.4493157E-04)
 number of electron       8.0000000 magnetization      -0.0000000
 augmentation part        0.6970145 magnetization      -0.0000032

[...]


    POTLOK:  cpu time      0.0881: real time      0.0865
    SETDIJ:  cpu time      1.9092: real time      1.0681
    TRIAL :  cpu time      0.0598: real time      0.0452
    CORREC:  cpu time      3.5284: real time      2.4627
    CHARGE:  cpu time      1.6088: real time      1.3308
    --------------------------------------------
      LOOP:  cpu time      7.2394: real time      5.0385

 eigenvalue-minimisations  :     0
 total energy-change (2. order) : 0.7358256E-04  (-0.6289372E-04)
 number of electron       8.0000000 magnetization       0.0000000
 augmentation part        0.6911815 magnetization      -0.0000001

 Free energy of the ion-electron system (eV)
  ---------------------------------------------------
  alpha Z        PSCENC =         0.05559414
  Ewald energy   TEWEN  =       151.93707079
  -Hartree energ DENC   =      -545.87606252
  -exchange      EXHF   =         0.00000000
  -V(xc)+E(xc)   XCENC  =        34.02398697
  PAW double counting   =       544.67903382     -546.77299229
  entropy T*S    EENTRO =        -0.00000000
  eigenvalues    EBANDS =      -109.59324810
  atomic energy  EATOM  =       457.33192828
  ---------------------------------------------------
  free energy    TOTEN  =       -14.21468891 eV

  energy without entropy =      -14.21468891  energy(sigma->0) =      -14.21468891


--------------------------------------------------------------------------------------------------------




--------------------------------------- Iteration      9(   2)  ---------------------------------------


    POTLOK:  cpu time      0.0855: real time      0.0838
    SETDIJ:  cpu time      1.5345: real time      1.0495
    TRIAL :  cpu time      0.0522: real time      0.0404
    CORREC:  cpu time      3.6161: real time      2.4972
    CHARGE:  cpu time      1.8280: real time      1.3334
    --------------------------------------------
      LOOP:  cpu time      7.1167: real time      5.0059

 eigenvalue-minimisations  :     0
 total energy-change (2. order) :-0.6286190E-04  (-0.1548149E-04)
 number of electron       8.0000000 magnetization       0.0000000
 augmentation part        0.6911801 magnetization      -0.0000001

 Free energy of the ion-electron system (eV)
  ---------------------------------------------------
  alpha Z        PSCENC =         0.05559414
  Ewald energy   TEWEN  =       151.93707079
  -Hartree energ DENC   =      -545.90243972
  -exchange      EXHF   =         0.00000000
  -V(xc)+E(xc)   XCENC  =        34.02535271
  PAW double counting   =       544.75768815     -546.85199595
  entropy T*S    EENTRO =        -0.00000000
  eigenvalues    EBANDS =      -109.56795017
  atomic energy  EATOM  =       457.33192828
  ---------------------------------------------------
  free energy    TOTEN  =       -14.21475177 eV

  energy without entropy =      -14.21475177  energy(sigma->0) =      -14.21475177


--------------------------------------------------------------------------------------------------------




--------------------------------------- Iteration      9(   3)  ---------------------------------------


    POTLOK:  cpu time      0.0847: real time      0.0831
    SETDIJ:  cpu time      1.7677: real time      1.0822
    TRIAL :  cpu time      0.0644: real time      0.0507
    CORREC:  cpu time      3.5113: real time      2.5171
    CHARGE:  cpu time      1.8909: real time      1.3784
    --------------------------------------------
      LOOP:  cpu time      7.3213: real time      5.1149

 eigenvalue-minimisations  :     0
 total energy-change (2. order) :-0.1542945E-04  (-0.3138852E-05)
 number of electron       8.0000000 magnetization       0.0000000
 augmentation part        0.6911996 magnetization      -0.0000000

 Free energy of the ion-electron system (eV)
  ---------------------------------------------------
  alpha Z        PSCENC =         0.05559414
  Ewald energy   TEWEN  =       151.93707079
  -Hartree energ DENC   =      -545.87371094
  -exchange      EXHF   =         0.00000000
  -V(xc)+E(xc)   XCENC  =        34.02374206
  PAW double counting   =       544.72837457     -546.82282968
  entropy T*S    EENTRO =        -0.00000000
  eigenvalues    EBANDS =      -109.59493642
  atomic energy  EATOM  =       457.33192828
  ---------------------------------------------------
  free energy    TOTEN  =       -14.21476720 eV

  energy without entropy =      -14.21476720  energy(sigma->0) =      -14.21476720


--------------------------------------------------------------------------------------------------------




--------------------------------------- Iteration      9(   4)  ---------------------------------------


    POTLOK:  cpu time      0.0853: real time      0.0850
    SETDIJ:  cpu time      1.5218: real time      1.0214
    TRIAL :  cpu time      0.0761: real time      0.0575
    CORREC:  cpu time      3.8964: real time      2.6041
    CHARGE:  cpu time      1.6975: real time      1.3486
    --------------------------------------------
      LOOP:  cpu time      7.2797: real time      5.1201

 eigenvalue-minimisations  :     0
 total energy-change (2. order) :-0.3139531E-05  (-0.5092061E-06)
 number of electron       8.0000000 magnetization       0.0000000
 augmentation part        0.6911964 magnetization      -0.0000000

 Free energy of the ion-electron system (eV)
  ---------------------------------------------------
  alpha Z        PSCENC =         0.05559414
  Ewald energy   TEWEN  =       151.93707079
  -Hartree energ DENC   =      -545.88187261
  -exchange      EXHF   =         0.00000000
  -V(xc)+E(xc)   XCENC  =        34.02424422
  PAW double counting   =       544.74159118     -546.83614522
  entropy T*S    EENTRO =        -0.00000000
  eigenvalues    EBANDS =      -109.58718112
  atomic energy  EATOM  =       457.33192828
  ---------------------------------------------------
  free energy    TOTEN  =       -14.21477034 eV

  energy without entropy =      -14.21477034  energy(sigma->0) =      -14.21477034


--------------------------------------------------------------------------------------------------------




--------------------------------------- Iteration      9(   5)  ---------------------------------------


    POTLOK:  cpu time      0.0858: real time      0.0842
    SETDIJ:  cpu time      1.4465: real time      0.9962
    TRIAL :  cpu time      0.0560: real time      0.0486
    CORREC:  cpu time      4.5813: real time      2.5779
    CHARGE:  cpu time      1.6558: real time      1.3038
    --------------------------------------------
      LOOP:  cpu time      7.8269: real time      5.0130

 eigenvalue-minimisations  :     0
 total energy-change (2. order) :-0.5076885E-06  (-0.1054364E-06)
 number of electron       8.0000000 magnetization      -0.0000000
 augmentation part        0.6911981 magnetization      -0.0000000

 Free energy of the ion-electron system (eV)
  ---------------------------------------------------
  alpha Z        PSCENC =         0.05559414
  Ewald energy   TEWEN  =       151.93707079
  -Hartree energ DENC   =      -545.87950301
  -exchange      EXHF   =         0.00000000
  -V(xc)+E(xc)   XCENC  =        34.02412223
  PAW double counting   =       544.73703278     -546.83159926
  entropy T*S    EENTRO =        -0.00000000
  eigenvalues    EBANDS =      -109.58941679
  atomic energy  EATOM  =       457.33192828
  ---------------------------------------------------
  free energy    TOTEN  =       -14.21477085 eV

  energy without entropy =      -14.21477085  energy(sigma->0) =      -14.21477085


--------------------------------------------------------------------------------------------------------




--------------------------------------- Iteration      9(   6)  ---------------------------------------


    POTLOK:  cpu time      0.0841: real time      0.0836
    SETDIJ:  cpu time      1.4645: real time      0.9821
    TRIAL :  cpu time      0.0451: real time      0.0410
    CORREC:  cpu time      4.4901: real time      2.5540
    EDDIAG:  cpu time      0.0107: real time      0.0106
    CHARGE:  cpu time      1.8776: real time      1.4081
    --------------------------------------------
      LOOP:  cpu time      7.9749: real time      5.0830

 eigenvalue-minimisations  :     0
 total energy-change (2. order) :-0.1060887E-06  (-0.2020888E-07)
 number of electron       8.0000000 magnetization       0.0000000
 augmentation part        0.6911972 magnetization      -0.0000000

 Free energy of the ion-electron system (eV)
  ---------------------------------------------------
  alpha Z        PSCENC =         0.05559414
  Ewald energy   TEWEN  =       151.93707079
  -Hartree energ DENC   =      -545.88042984
  -exchange      EXHF   =         0.00000000
  -V(xc)+E(xc)   XCENC  =        34.02417232
  PAW double counting   =       544.73809313     -546.83267341
  entropy T*S    EENTRO =        -0.00000000
  eigenvalues    EBANDS =      -109.58852636
  atomic energy  EATOM  =       457.33192828
  ---------------------------------------------------
  free energy    TOTEN  =       -14.21477095 eV

  energy without entropy =      -14.21477095  energy(sigma->0) =      -14.21477095


--------------------------------------------------------------------------------------------------------


  average scaling for gradient   1.4553


 average (electrostatic) potential at core
  the test charge radii are     0.5201  0.7215
  (the norm of the test charge is              1.0000)
       1 -44.6964       2 -44.6985       3 -80.5521
 
 
 
 E-fermi :  -5.9929     XC(G=0):  -0.1435     alpha+bet : -0.0323

 Fermi energy:        -5.9928603624

 spin component 1

 k-point     1 :       0.0000    0.0000    0.0000
  band No.  band energies     occupation 
      1     -25.2831      1.00000
      2     -13.0852      1.00000
      3      -9.2428      1.00000
      4      -7.1833      1.00000
      5      -1.0285      0.00000
      6       0.0013      0.00000
      7       0.1601      0.00000
      8       0.3406      0.00000
      9       0.4920      0.00000
     10       0.5608      0.00000
     11       0.6816      0.00000
     12       0.8819      0.00000
     13       1.0542      0.00000
     14       1.1487      0.00000
     15       1.2103      0.00000
     16       1.2365      0.00000
 Fermi energy:        -5.9928603624

 spin component 2

 k-point     1 :       0.0000    0.0000    0.0000
  band No.  band energies     occupation 
      1     -25.2831      1.00000
      2     -13.0852      1.00000
      3      -9.2428      1.00000
      4      -7.1833      1.00000
      5      -1.0285      0.00000
      6       0.0013      0.00000
      7       0.1601      0.00000
      8       0.3406      0.00000
      9       0.4920      0.00000
     10       0.5608      0.00000
     11       0.6816      0.00000
     12       0.8819      0.00000
     13       1.0542      0.00000
     14       1.1487      0.00000
     15       1.2093      0.00000
     16       1.2209      0.00000


--------------------------------------------------------------------------------------------------------


 soft charge-density along one line, spin component            1
         0         1         2         3         4         5         6         7         8         9
 total charge-density along one line
 
 soft charge-density along one line, spin component            2
         0         1         2         3         4         5         6         7         8         9
 total charge-density along one line
 
 pseudopotential strength for first ion, spin component:            1
 -2.384  -4.117  -0.002  -0.001   0.000
 -4.117  -7.023  -0.008  -0.004   0.000
 -0.002  -0.008  -0.316   0.004  -0.000
 -0.001  -0.004   0.004  -0.322  -0.000
  0.000   0.000  -0.000  -0.000  -0.324
 pseudopotential strength for first ion, spin component:            2
 -2.384  -4.117  -0.002  -0.001   0.000
 -4.117  -7.023  -0.008  -0.004   0.000
 -0.002  -0.008  -0.316   0.004  -0.000
 -0.001  -0.004   0.004  -0.322  -0.000
  0.000   0.000  -0.000  -0.000  -0.324
 total augmentation occupancy for first ion, spin component:            1
  3.797  -0.806   0.636   0.332   0.000
 -0.806   0.221  -0.129  -0.073   0.000
  0.636  -0.129   0.111   0.046   0.000
  0.332  -0.073   0.046   0.051   0.000
  0.000   0.000   0.000   0.000   0.040
 total augmentation occupancy for first ion, spin component:            2
 -0.000   0.000  -0.000  -0.000   0.000
  0.000  -0.000   0.000   0.000   0.000
 -0.000   0.000  -0.000   0.000   0.000
 -0.000   0.000   0.000   0.000   0.000
  0.000   0.000   0.000   0.000   0.000


------------------------ aborting loop because EDIFF is reached ----------------------------------------





 total charge

# of ion       s       p       d       tot
------------------------------------------
    1        0.626   0.120   0.000   0.746
    2        0.626   0.120   0.000   0.746
    3        1.566   3.601   0.000   5.167
--------------------------------------------------
tot          2.819   3.841   0.000   6.660



 magnetization (x)

# of ion       s       p       d       tot
------------------------------------------
    1        0.000   0.000   0.000   0.000
    2        0.000  -0.000   0.000   0.000
    3        0.000  -0.000   0.000  -0.000
--------------------------------------------------
tot          0.000  -0.000   0.000  -0.000
 
    FORLOC:  cpu time      0.0155: real time      0.0153
    FORNL :  cpu time      9.2376: real time      5.9811
    STRESS:  cpu time     28.1628: real time     19.3749
    FORCOR:  cpu time      0.0684: real time      0.0545
    OFIELD:  cpu time      0.0062: real time      0.0062

  FORCE on cell =-STRESS in cart. coord.  units (eV):
  Direction    XX          YY          ZZ          XY          YZ          ZX
  --------------------------------------------------------------------------------------
  Alpha Z     0.05559     0.05559     0.05559
  Ewald      45.41568   164.12281   -57.60142    -0.00000    -8.51776    -0.00000
  Hartree   227.78689   248.07605    70.01718    -0.00000    -1.45321    -0.00000
  E(xc)     -36.42054   -35.93208   -36.12084     0.00000    -0.03150     0.00000
  Local    -382.32088  -485.94748  -100.58170     0.00000     7.56766     0.00000
  n-local   -30.85378   -30.22286   -30.99301     0.00000    -0.12966     0.00000
  augment     8.16881     5.80703     6.72439     0.00000     0.15351    -0.00000
  Kinetic   168.11620   133.98963   148.43647    -0.00000     2.41446    -0.00000
  Fock        0.00000     0.00000     0.00000     0.00000     0.00000     0.00000
  -------------------------------------------------------------------------------------
  Total      -0.05203    -0.05131    -0.06334     0.00000     0.00351     0.00000
  in kB      -0.02067    -0.02038    -0.02516     0.00000     0.00139     0.00000
  external pressure =       -0.02 kB  Pullay stress =        0.00 kB


 VOLUME and BASIS-vectors are now :
 -----------------------------------------------------------------------------
  energy-cutoff  :      520.00
  volume of cell :     4033.72
      direct lattice vectors                 reciprocal lattice vectors
    11.103800000  0.000000000  0.000000000     0.090059259  0.000000000  0.000000000
     0.000000000 11.200200000  0.000000000     0.000000000  0.089284120  0.000000000
     0.000000000  0.000000000 32.434600000     0.000000000  0.000000000  0.030831273

  length of vectors
    11.103800000 11.200200000 32.434600000     0.090059259  0.089284120  0.030831273


 FORCES acting on ions:
    Electron-Ion                     Ewald-Force                    Non-Local-Force
 -----------------------------------------------------------------------------------------------
   0.599E-08 0.786E+02 0.391E+02   -.891E-16 -.861E+02 -.428E+02   -.680E-23 0.745E+01 0.371E+01
   0.880E-08 -.623E+02 0.621E+02   0.323E-16 0.682E+02 -.680E+02   0.660E-22 -.588E+01 0.587E+01
   0.160E-06 -.100E+02 -.623E+02   0.375E-16 0.179E+02 0.111E+03   -.864E-21 -.786E+01 -.485E+02
 -----------------------------------------------------------------------------------------------
   0.172E-06 0.630E+01 0.389E+02   -.194E-16 -.711E-14 0.000E+00   -.805E-21 -.630E+01 -.389E+02
 
 
 POSITION                                       TOTAL-FORCE (eV/Angst)
 -----------------------------------------------------------------------------------
      5.35525      7.30914     16.50719         0.000000     -0.000844     -0.000257
      5.35525      8.82695     16.26045         0.000000     -0.005017      0.001785
      5.35525      8.16341     16.97082        -0.000000      0.005860     -0.001527
 -----------------------------------------------------------------------------------
    total drift:                                0.000000      0.000141      0.000169


--------------------------------------------------------------------------------------------------------



  FREE ENERGIE OF THE ION-ELECTRON SYSTEM (eV)
  ---------------------------------------------------
  free  energy   TOTEN  =       -14.21477095 eV

  energy  without entropy=      -14.21477095  energy(sigma->0) =      -14.21477095
 
 d Force = 0.8482918E-05[ 0.293E-05, 0.140E-04]  d Energy = 0.8457965E-05 0.250E-07
 d Force = 0.9525800E-04[ 0.112E-03, 0.783E-04]  d Ewald  = 0.9525300E-04 0.500E-08


--------------------------------------------------------------------------------------------------------


    POTLOK:  cpu time      1.6739: real time      1.1868


--------------------------------------------------------------------------------------------------------


 Conjugate gradient step on ions:
 trial-energy change:   -0.000008  1 .order   -0.000008   -0.000014   -0.000003
  (g-gl).g = 0.598E-04      g.g   = 0.595E-04  gl.gl    = 0.442E-04
 g(Force)  = 0.595E-04   g(Stress)= 0.000E+00 ortho     =-0.262E-06
 gamma     =   1.35327
 trial     =   0.23728
 opt step  =   0.29994  (harmonic =   0.29994) maximal distance =0.00032877
 next E    =   -14.214771   (d E  =  -0.00001)


--------------------------------------------------------------------------------------------------------


  
 reached required accuracy - stopping structural energy minimisation
 writing wavefunctions
     LOOP+:  cpu time     85.7699: real time     58.3025
    4ORBIT:  cpu time      0.0000: real time      0.0000



 total charge

# of ion       s       p       d       tot
------------------------------------------
    1        0.626   0.120   0.000   0.746
    2        0.626   0.120   0.000   0.746
    3        1.566   3.601   0.000   5.167
--------------------------------------------------
tot          2.819   3.841   0.000   6.660



 magnetization (x)

# of ion       s       p       d       tot
------------------------------------------
    1        0.000   0.000   0.000   0.000
    2        0.000  -0.000   0.000   0.000
    3        0.000  -0.000   0.000  -0.000
--------------------------------------------------
tot          0.000  -0.000   0.000  -0.000
 

 total amount of memory used by VASP MPI-rank0   617380. kBytes
=======================================================================

   base      :      30000. kBytes
   nonl-proj :      19110. kBytes
   fftplans  :     264485. kBytes
   grid      :     282917. kBytes
   one-center:         18. kBytes
   wavefun   :      20850. kBytes
 
  
  
 General timing and accounting informations for this job:
 ========================================================
  
                  Total CPU time used (sec):     1087.547
                            User time (sec):      905.378
                          System time (sec):      182.169
                         Elapsed time (sec):      753.130
  
                   Maximum memory used (kb):     2881704.
                   Average memory used (kb):          N/A
  
                          Minor page faults:      1858459
                          Major page faults:           32
                 Voluntary context switches:       152770
