<?xml version="1.0" encoding="ISO-8859-1"?>
<modeling>
 <generator>
  <i name="program" type="string">vasp </i>
  <i name="version" type="string">6.3.2  </i>
  <i name="subversion" type="string">27Jun22 (build Sep  5 2022 18:50:32) complex                          parallel </i>
  <i name="platform" type="string">LinuxNV </i>
  <i name="date" type="string">2023 01 14 </i>
  <i name="time" type="string">19:03:05 </i>
 </generator>
 <incar>
  <i type="string" name="PREC">Accurate   (Precision level: Normal or Accurate, set Accurate when perform structure lattice relaxation calculation)</i>
  <i type="string" name="ALGO">All</i>
  <i type="logical" name="ADDGRID"> T  </i>
  <i type="int" name="ISPIN">     2</i>
  <i type="int" name="NELM">   150</i>
  <i type="int" name="NELMIN">     6</i>
  <i type="int" name="IBRION">     2</i>
  <i name="EDIFF">      0.00000100</i>
  <i name="EDIFFG">     -0.01000000</i>
  <i type="int" name="NSW">   100</i>
  <i type="int" name="ISIF">     2</i>
  <i name="ENCUT">    520.00000000</i>
  <i type="logical" name="LREAL"> F  </i>
  <i type="int" name="ISMEAR">    -1</i>
  <i name="SIGMA">      0.05000000</i>
  <i type="logical" name="LWAVE"> T  </i>
  <i type="logical" name="LCHARG"> T  </i>
  <i type="int" name="LORBIT">    11</i>
 </incar>
 <primitive_cell>
  <structure name="primitive_cell" >
   <crystal>
    <varray name="basis" >
     <v>      11.10380000       0.00000000       0.00000000 </v>
     <v>       0.00000000      11.20020000       0.00000000 </v>
     <v>       0.00000000       0.00000000      32.43460000 </v>
    </varray>
    <i name="volume">   4033.72191804 </i>
    <varray name="rec_basis" >
     <v>       0.09005926       0.00000000       0.00000000 </v>
     <v>       0.00000000       0.08928412       0.00000000 </v>
     <v>       0.00000000       0.00000000       0.03083127 </v>
    </varray>
   </crystal>
   <varray name="positions" >
    <v>       0.48229000       0.65286000       0.50903000 </v>
    <v>       0.48229000       0.78877000       0.50115000 </v>
    <v>       0.48229000       0.72793000       0.52332000 </v>
   </varray>
  </structure>
  <varray name="primitive_index" >
   <v type="int" >        1 </v>
   <v type="int" >        2 </v>
   <v type="int" >        3 </v>
  </varray>
 </primitive_cell>
 <kpoints>
  <generation param="Monkhorst-Pack">
   <v type="int" name="divisions">       1        1        1 </v>
   <v name="usershift">      0.00000000       0.00000000       0.00000000 </v>
   <v name="genvec1">      1.00000000       0.00000000       0.00000000 </v>
   <v name="genvec2">      0.00000000       1.00000000       0.00000000 </v>
   <v name="genvec3">      0.00000000       0.00000000       1.00000000 </v>
   <v name="shift">      0.00000000       0.00000000       0.00000000 </v>
  </generation>
  <varray name="kpointlist" >
   <v>       0.00000000       0.00000000       0.00000000 </v>
  </varray>
  <varray name="weights" >
   <v>       1.00000000 </v>
  </varray>
 </kpoints>
 <parameters>
  <separator name="general" >
   <i type="string" name="SYSTEM">unknown system</i>
   <i type="logical" name="LCOMPAT"> F  </i>
  </separator>
  <separator name="electronic" >
   <i type="string" name="PREC">accura</i>
   <i name="ENMAX">    520.00000000</i>
   <i name="ENAUG">    605.39200000</i>
   <i name="EDIFF">      0.00000100</i>
   <i type="int" name="IALGO">    58</i>
   <i type="int" name="IWAVPR">    11</i>
   <i type="int" name="NBANDS">    16</i>
   <i type="int" name="NBANDSLOW">    -1</i>
   <i type="int" name="NBANDSHIGH">    -1</i>
   <i name="NELECT">      8.00000000</i>
   <i type="int" name="TURBO">     0</i>
   <i type="int" name="IRESTART">     0</i>
   <i type="int" name="NREBOOT">     0</i>
   <i type="int" name="NMIN">     0</i>
   <i name="EREF">      0.00000000</i>
   <separator name="electronic smearing" >
    <i type="int" name="ISMEAR">    -1</i>
    <i name="SIGMA">      0.05000000</i>
    <i name="KSPACING">      0.50000000</i>
    <i type="logical" name="KGAMMA"> T  </i>
    <i type="logical" name="KBLOWUP"> T  </i>
   </separator>
   <separator name="electronic projectors" >
    <i type="logical" name="LREAL"> F  </i>
    <v name="ROPT">      0.00000000      0.00000000</v>
    <i type="int" name="LMAXPAW">  -100</i>
    <i type="int" name="LMAXMIX">     2</i>
    <i type="logical" name="NLSPLINE"> F  </i>
   </separator>
   <separator name="electronic startup" >
    <i type="int" name="ISTART">     0</i>
    <i type="int" name="ICHARG">     2</i>
    <i type="int" name="INIWAV">     1</i>
   </separator>
   <separator name="electronic spin" >
    <i type="int" name="ISPIN">     2</i>
    <i type="logical" name="LNONCOLLINEAR"> F  </i>
    <v name="MAGMOM">      1.00000000      1.00000000      1.00000000</v>
    <i name="NUPDOWN">     -1.00000000</i>
    <i type="logical" name="LSORBIT"> F  </i>
    <v name="SAXIS">      0.00000000      0.00000000      1.00000000</v>
    <i type="logical" name="LSPIRAL"> F  </i>
    <v name="QSPIRAL">      0.00000000      0.00000000      0.00000000</v>
    <i type="logical" name="LZEROZ"> F  </i>
   </separator>
   <separator name="electronic exchange-correlation" >
    <i type="logical" name="LASPH"> F  </i>
    <i type="logical" name="LMETAGGA"> F  </i>
   </separator>
   <separator name="electronic convergence" >
    <i type="int" name="NELM">   150</i>
    <i type="int" name="NELMDL">    -5</i>
    <i type="int" name="NELMIN">     6</i>
    <i name="ENINI">    520.00000000</i>
    <separator name="electronic convergence detail" >
     <i type="logical" name="LDIAG"> T  </i>
     <i type="logical" name="LSUBROT"> F  </i>
     <i name="WEIMIN">      0.00100000</i>
     <i name="EBREAK">      0.00000002</i>
     <i name="DEPER">      0.30000000</i>
     <i type="int" name="NRMM">     4</i>
     <i name="TIME">      0.40000000</i>
    </separator>
   </separator>
   <separator name="electronic mixer" >
    <i name="AMIX">      0.40000000</i>
    <i name="BMIX">      1.00000000</i>
    <i name="AMIN">      0.10000000</i>
    <i name="AMIX_MAG">      1.60000000</i>
    <i name="BMIX_MAG">      1.00000000</i>
    <separator name="electronic mixer details" >
     <i type="int" name="IMIX">     4</i>
     <i type="logical" name="MIXFIRST"> F  </i>
     <i type="int" name="MAXMIX">   -45</i>
     <i name="WC">    100.00000000</i>
     <i type="int" name="INIMIX">     1</i>
     <i type="int" name="MIXPRE">     1</i>
     <i type="int" name="MREMOVE">     5</i>
    </separator>
   </separator>
   <separator name="electronic dipolcorrection" >
    <i type="logical" name="LDIPOL"> F  </i>
    <i type="logical" name="LMONO"> F  </i>
    <i type="int" name="IDIPOL">     0</i>
    <i name="EPSILON">      1.00000000</i>
    <v name="DIPOL">   -100.00000000   -100.00000000   -100.00000000</v>
    <i name="EFIELD">      0.00000000</i>
   </separator>
  </separator>
  <separator name="grids" >
   <i type="int" name="NGX">    84</i>
   <i type="int" name="NGY">    84</i>
   <i type="int" name="NGZ">   250</i>
   <i type="int" name="NGXF">   168</i>
   <i type="int" name="NGYF">   168</i>
   <i type="int" name="NGZF">   500</i>
   <i type="logical" name="ADDGRID"> T  </i>
  </separator>
  <separator name="ionic" >
   <i type="int" name="NSW">   100</i>
   <i type="int" name="IBRION">     2</i>
   <i type="int" name="MDALGO">     0</i>
   <i type="int" name="ISIF">     2</i>
   <i name="PSTRESS">      0.00000000</i>
   <i name="EDIFFG">     -0.01000000</i>
   <i type="int" name="NFREE">     1</i>
   <i name="POTIM">      0.50000000</i>
   <i name="SMASS">     -3.00000000</i>
   <i name="SCALEE">      1.00000000</i>
  </separator>
  <separator name="ionic md" >
   <i name="TEBEG">      0.00010000</i>
   <i name="TEEND">      0.00010000</i>
   <i type="int" name="NBLOCK">     1</i>
   <i type="int" name="KBLOCK">   100</i>
   <i type="int" name="NPACO">   256</i>
   <i name="APACO">     10.00000000</i>
  </separator>
  <separator name="symmetry" >
   <i type="int" name="ISYM">     2</i>
   <i name="SYMPREC">      0.00001000</i>
  </separator>
  <separator name="dos" >
   <i type="int" name="LORBIT">    11</i>
   <v name="RWIGS">     -1.00000000     -1.00000000</v>
   <i type="int" name="NEDOS">   301</i>
   <i name="EMIN">     10.00000000</i>
   <i name="EMAX">    -10.00000000</i>
   <i name="EFERMI">      0.00000000</i>
  </separator>
  <separator name="writing" >
   <i type="int" name="NWRITE">     2</i>
   <i type="logical" name="LWAVE"> T  </i>
   <i type="logical" name="LDOWNSAMPLE"> F  </i>
   <i type="logical" name="LCHARG"> T  </i>
   <i type="logical" name="LPARD"> F  </i>
   <i type="logical" name="LVTOT"> F  </i>
   <i type="logical" name="LVHAR"> F  </i>
   <i type="logical" name="LELF"> F  </i>
   <i type="logical" name="LOPTICS"> F  </i>
   <v name="STM">      0.00000000      0.00000000      0.00000000      0.00000000      0.00000000      0.00000000      0.00000000</v>
  </separator>
  <separator name="performance" >
   <i type="int" name="NPAR">     8</i>
   <i type="int" name="NSIM">     4</i>
   <i type="int" name="NBLK">    -1</i>
   <i type="logical" name="LPLANE"> T  </i>
   <i type="logical" name="LSCALAPACK"> F  </i>
   <i type="logical" name="LSCAAWARE"> F  </i>
   <i type="logical" name="LSCALU"> F  </i>
   <i type="logical" name="LASYNC"> F  </i>
   <i type="logical" name="LORBITALREAL"> F  </i>
  </separator>
  <separator name="miscellaneous" >
   <i type="int" name="IDIOT">     3</i>
   <i type="int" name="PHON_NSTRUCT">    -1</i>
   <i type="logical" name="LMUSIC"> F  </i>
   <v name="POMASS">      1.00000000     16.00000000</v>
   <v name="DARWINR">      0.00000000      0.00000000</v>
   <v name="DARWINV">      1.00000000      1.00000000</v>
   <i type="logical" name="LCORR"> T  </i>
  </separator>
  <i type="logical" name="GGA_COMPAT"> T  </i>
  <i type="logical" name="LBERRY"> F  </i>
  <i type="int" name="ICORELEVEL">     0</i>
  <i type="logical" name="LDAU"> F  </i>
  <i type="int" name="I_CONSTRAINED_M">     0</i>
  <separator name="electronic exchange-correlation" >
   <i type="string" name="GGA">--</i>
   <i type="int" name="VOSKOWN">     0</i>
   <i type="logical" name="LHFCALC"> F  </i>
   <i type="string" name="PRECFOCK"></i>
   <i type="logical" name="LSYMGRAD"> F  </i>
   <i type="logical" name="LHFONE"> F  </i>
   <i type="logical" name="LRHFCALC"> F  </i>
   <i type="logical" name="LTHOMAS"> F  </i>
   <i type="logical" name="LMODELHF"> F  </i>
   <i type="logical" name="LFOCKACE"> F  </i>
   <i name="ENCUT4O">     -1.00000000</i>
   <i type="int" name="EXXOEP">     0</i>
   <i type="int" name="FOURORBIT">     0</i>
   <i name="AEXX">      0.00000000</i>
   <i name="HFALPHA">      0.00000000</i>
   <i name="MCALPHA">      0.00000000</i>
   <i name="ALDAX">      1.00000000</i>
   <i name="AGGAX">      1.00000000</i>
   <i name="ALDAC">      1.00000000</i>
   <i name="AGGAC">      1.00000000</i>
   <i type="int" name="NKREDX">     1</i>
   <i type="int" name="NKREDY">     1</i>
   <i type="int" name="NKREDZ">     1</i>
   <i type="logical" name="SHIFTRED"> F  </i>
   <i type="logical" name="ODDONLY"> F  </i>
   <i type="logical" name="EVENONLY"> F  </i>
   <i type="int" name="LMAXFOCK">     0</i>
   <i type="int" name="NMAXFOCKAE">     0</i>
   <i type="logical" name="LFOCKAEDFT"> F  </i>
   <i name="HFSCREEN">      0.00000000</i>
   <i name="HFSCREENC">      0.00000000</i>
   <i type="int" name="NBANDSGWLOW">     0</i>
  </separator>
  <separator name="vdW DFT" >
   <i type="logical" name="LUSE_VDW"> F  </i>
   <i name="Zab_VDW">     -0.84910000</i>
   <i name="PARAM1">      0.12340000</i>
   <i name="PARAM2">      1.00000000</i>
   <i name="PARAM3">      0.00000000</i>
  </separator>
  <separator name="model GW" >
   <i type="int" name="MODEL_GW">     0</i>
   <i name="MODEL_EPS0">    806.74438361</i>
   <i name="MODEL_ALPHA">      1.00000000</i>
  </separator>
  <separator name="linear response parameters" >
   <i type="logical" name="LEPSILON"> F  </i>
   <i type="logical" name="LRPA"> F  </i>
   <i type="logical" name="LNABLA"> F  </i>
   <i type="logical" name="LVEL"> F  </i>
   <i name="CSHIFT">      0.10000000</i>
   <i name="OMEGAMAX">     -1.00000000</i>
   <i name="DEG_THRESHOLD">      0.00200000</i>
   <i name="RTIME">     -0.10000000</i>
   <i name="WPLASMAI">      0.00000000</i>
   <v name="DFIELD">      0.00000000      0.00000000      0.00000000</v>
   <v name="WPLASMA">      0.00000000      0.00000000      0.00000000      0.00000000      0.00000000      0.00000000      0.00000000      0.00000000      0.00000000</v>
  </separator>
  <separator name="orbital magnetization" >
   <i type="logical" name="NUCIND"> F  </i>
   <v name="MAGPOS">      0.00000000      0.00000000      0.00000000</v>
   <i type="logical" name="LNICSALL"> T  </i>
   <i type="logical" name="ORBITALMAG"> F  </i>
   <i type="logical" name="LMAGBLOCH"> F  </i>
   <i type="logical" name="LCHIMAG"> F  </i>
   <i type="logical" name="LGAUGE"> T  </i>
   <i type="int" name="MAGATOM">     0</i>
   <v name="MAGDIPOL">      0.00000000      0.00000000      0.00000000</v>
   <v name="AVECCONST">      0.00000000      0.00000000      0.00000000</v>
  </separator>
  <separator name="response functions" >
   <i type="logical" name="LFINITE_TEMPERATURE"> F  </i>
   <i type="logical" name="LADDER"> F  </i>
   <i type="logical" name="LRPAFORCE"> F  </i>
   <i type="logical" name="LFXC"> F  </i>
   <i type="logical" name="LHARTREE"> T  </i>
   <i type="int" name="IBSE">     0</i>
   <v type="int" name="KPOINT">    -1     0     0     0</v>
   <i type="logical" name="LTCTC"> F  </i>
   <i type="logical" name="LTCTE"> F  </i>
   <i type="logical" name="LTETE"> F  </i>
   <i type="logical" name="LTRIPLET"> F  </i>
   <i type="logical" name="LFXCEPS"> F  </i>
   <i type="logical" name="LFXHEG"> F  </i>
   <i type="int" name="NATURALO">     2</i>
   <i type="logical" name="LHOLEGF"> F  </i>
   <i type="logical" name="L2ORDER"> F  </i>
   <i type="logical" name="LDMP1"> F  </i>
   <i type="logical" name="LMP2LT"> F  </i>
   <i type="logical" name="LSMP2LT"> F  </i>
   <i type="logical" name="LGWLF"> F  </i>
   <i name="ENCUTGW">     -2.00000000</i>
   <i name="ENCUTGWSOFT">     -2.00000000</i>
   <i name="ENCUTLF">     -1.00000000</i>
   <i type="logical" name="LESF_SPLINES"> F  </i>
   <i type="int" name="LMAXMP2">    -1</i>
   <i name="SCISSOR">      0.00000000</i>
   <i type="int" name="NOMEGA">     0</i>
   <i type="int" name="NOMEGAR">     0</i>
   <i type="int" name="NBANDSGW">    -1</i>
   <i type="int" name="NBANDSO">    -1</i>
   <i type="int" name="NBANDSV">    -1</i>
   <i type="int" name="NELMGW">     1</i>
   <i type="int" name="NELMHF">     1</i>
   <i type="int" name="DIM">     3</i>
   <i type="int" name="IESPILON">     4</i>
   <i type="int" name="ANTIRES">     0</i>
   <i name="OMEGAMAX">    -30.00000000</i>
   <i name="OMEGAMIN">    -30.00000000</i>
   <i name="OMEGATL">   -200.00000000</i>
   <i type="int" name="OMEGAGRID">     0</i>
   <i name="CSHIFT">     -0.10000000</i>
   <i type="logical" name="LSELFENERGY"> F  </i>
   <i type="logical" name="LSPECTRAL"> F  </i>
   <i type="logical" name="LSPECTRALGW"> F  </i>
   <i type="logical" name="LSINGLES"> F  </i>
   <i type="logical" name="LFERMIGW"> F  </i>
   <i type="logical" name="ODDONLYGW"> F  </i>
   <i type="logical" name="EVENONLYGW"> F  </i>
   <i type="int" name="NKREDLFX">     1</i>
   <i type="int" name="NKREDLFY">     1</i>
   <i type="int" name="NKREDLFZ">     1</i>
   <i type="int" name="MAXMEM">  2800</i>
   <i type="int" name="TELESCOPE">     0</i>
   <i type="int" name="NTAUPAR">    -1</i>
   <i type="int" name="NOMEGAPAR">    -1</i>
   <i name="DAMP_NEWTON">      0.80000001</i>
   <i name="LAMBDA">      1.00000000</i>
  </separator>
  <separator name="External order field" >
   <i name="OFIELD_KAPPA">      0.00000000</i>
   <v name="OFIELD_K">      0.00000000      0.00000000      0.00000000</v>
   <i name="OFIELD_Q6_NEAR">      0.00000000</i>
   <i name="OFIELD_Q6_FAR">      0.00000000</i>
   <i name="OFIELD_A">      0.00000000</i>
  </separator>
  <separator name="optional k-points parameters" >
   <i type="int" name="KPOINTS_OPT_MODE">     1</i>
   <i type="logical" name="LKPOINTS_OPT"> F  </i>
  </separator>
 </parameters>
 <atominfo>
  <atoms>       3 </atoms>
  <types>       2 </types>
  <array name="atoms" >
   <dimension dim="1">ion</dimension>
   <field type="string">element</field>
   <field type="int">atomtype</field>
   <set>
    <rc><c>H </c><c>   1</c></rc>
    <rc><c>H </c><c>   1</c></rc>
    <rc><c>O </c><c>   2</c></rc>
   </set>
  </array>
  <array name="atomtypes" >
   <dimension dim="1">type</dimension>
   <field type="int">atomspertype</field>
   <field type="string">element</field>
   <field>mass</field>
   <field>valence</field>
   <field type="string">pseudopotential</field>
   <set>
    <rc><c>   2</c><c>H </c><c>      1.00000000</c><c>      1.00000000</c><c>  PAW_PBE H 15Jun2001                   </c></rc>
    <rc><c>   1</c><c>O </c><c>     16.00000000</c><c>      6.00000000</c><c>  PAW_PBE O 08Apr2002                   </c></rc>
   </set>
  </array>
 </atominfo>
 <structure name="initialpos" >
  <crystal>
   <varray name="basis" >
    <v>      11.10380000       0.00000000       0.00000000 </v>
    <v>       0.00000000      11.20020000       0.00000000 </v>
    <v>       0.00000000       0.00000000      32.43460000 </v>
   </varray>
   <i name="volume">   4033.72191804 </i>
   <varray name="rec_basis" >
    <v>       0.09005926       0.00000000       0.00000000 </v>
    <v>       0.00000000       0.08928412       0.00000000 </v>
    <v>       0.00000000       0.00000000       0.03083127 </v>
   </varray>
  </crystal>
  <varray name="positions" >
   <v>       0.48229000       0.65286000       0.50903000 </v>
   <v>       0.48229000       0.78877000       0.50115000 </v>
   <v>       0.48229000       0.72793000       0.52332000 </v>
  </varray>
 </structure>
 <calculation>
  <scstep>
   <time name="total">    1.70    1.65</time>
   <energy>
    <i name="alphaZ">      0.05559414 </i>
    <i name="ewald">    151.33275793 </i>
    <i name="hartreedc">   -510.66479544 </i>
    <i name="XCdc">     32.97894427 </i>
    <i name="pawpsdc">    349.99468356 </i>
    <i name="pawaedc">   -351.80531939 </i>
    <i name="eentropy">     -0.11012702 </i>
    <i name="bandstr">    -52.04071204 </i>
    <i name="atom">    457.33192828 </i>
    <i name="e_fr_energy">     77.07295430 </i>
    <i name="e_wo_entrp">     77.18308132 </i>
    <i name="e_0_energy">     77.12801781 </i>
   </energy>
  </scstep>
  <scstep>
   <time name="total">    0.06    0.06</time>
   <energy>
    <i name="e_fr_energy">     14.72759083 </i>
    <i name="e_wo_entrp">     14.72759083 </i>
    <i name="e_0_energy">     14.72759083 </i>
   </energy>
  </scstep>
  <scstep>
   <time name="total">    0.05    0.05</time>
   <energy>
    <i name="e_fr_energy">    -11.15707257 </i>
    <i name="e_wo_entrp">    -11.15707257 </i>
    <i name="e_0_energy">    -11.15707257 </i>
   </energy>
  </scstep>
  <scstep>
   <time name="total">    0.05    0.05</time>
   <energy>
    <i name="e_fr_energy">    -12.89537553 </i>
    <i name="e_wo_entrp">    -12.89537553 </i>
    <i name="e_0_energy">    -12.89537553 </i>
   </energy>
  </scstep>
  <scstep>
   <time name="total">    1.61    1.41</time>
   <energy>
    <i name="e_fr_energy">    -12.91083596 </i>
    <i name="e_wo_entrp">    -12.91083596 </i>
    <i name="e_0_energy">    -12.91083596 </i>
   </energy>
  </scstep>
  <scstep>
   <time name="total">    8.16    5.15</time>
   <energy>
    <i name="e_fr_energy">     -9.52711848 </i>
    <i name="e_wo_entrp">     -9.52711848 </i>
    <i name="e_0_energy">     -9.52711848 </i>
   </energy>
  </scstep>
  <scstep>
   <time name="total">    6.95    4.89</time>
   <energy>
    <i name="e_fr_energy">    -13.22703007 </i>
    <i name="e_wo_entrp">    -13.22703007 </i>
    <i name="e_0_energy">    -13.22703007 </i>
   </energy>
  </scstep>
  <scstep>
   <time name="total">    6.91    4.96</time>
   <energy>
    <i name="e_fr_energy">    -13.79361387 </i>
    <i name="e_wo_entrp">    -13.79361387 </i>
    <i name="e_0_energy">    -13.79361387 </i>
   </energy>
  </scstep>
  <scstep>
   <time name="total">    6.84    4.89</time>
   <energy>
    <i name="e_fr_energy">    -14.06802557 </i>
    <i name="e_wo_entrp">    -14.06802557 </i>
    <i name="e_0_energy">    -14.06802557 </i>
   </energy>
  </scstep>
  <scstep>
   <time name="total">    7.01    5.03</time>
   <energy>
    <i name="e_fr_energy">    -14.16294587 </i>
    <i name="e_wo_entrp">    -14.16294587 </i>
    <i name="e_0_energy">    -14.16294587 </i>
   </energy>
  </scstep>
  <scstep>
   <time name="total">    7.24    5.02</time>
   <energy>
    <i name="e_fr_energy">    -14.19075675 </i>
    <i name="e_wo_entrp">    -14.19075675 </i>
    <i name="e_0_energy">    -14.19075675 </i>
   </energy>
  </scstep>
  <scstep>
   <time name="total">    7.01    5.00</time>
   <energy>
    <i name="e_fr_energy">    -14.19910778 </i>
    <i name="e_wo_entrp">    -14.19910778 </i>
    <i name="e_0_energy">    -14.19910778 </i>
   </energy>
  </scstep>
  <scstep>
   <time name="total">    6.65    4.90</time>
   <energy>
    <i name="e_fr_energy">    -14.20157055 </i>
    <i name="e_wo_entrp">    -14.20157055 </i>
    <i name="e_0_energy">    -14.20157055 </i>
   </energy>
  </scstep>
  <scstep>
   <time name="total">    6.91    5.01</time>
   <energy>
    <i name="e_fr_energy">    -14.20231271 </i>
    <i name="e_wo_entrp">    -14.20231271 </i>
    <i name="e_0_energy">    -14.20231271 </i>
   </energy>
  </scstep>
  <scstep>
   <time name="total">    8.35    5.07</time>
   <energy>
    <i name="e_fr_energy">    -14.20255169 </i>
    <i name="e_wo_entrp">    -14.20255169 </i>
    <i name="e_0_energy">    -14.20255169 </i>
   </energy>
  </scstep>
  <scstep>
   <time name="total">    7.02    4.90</time>
   <energy>
    <i name="e_fr_energy">    -14.20263153 </i>
    <i name="e_wo_entrp">    -14.20263153 </i>
    <i name="e_0_energy">    -14.20263153 </i>
   </energy>
  </scstep>
  <scstep>
   <time name="total">    6.69    4.94</time>
   <energy>
    <i name="e_fr_energy">    -14.20265670 </i>
    <i name="e_wo_entrp">    -14.20265670 </i>
    <i name="e_0_energy">    -14.20265670 </i>
   </energy>
  </scstep>
  <scstep>
   <time name="total">    7.26    5.07</time>
   <energy>
    <i name="e_fr_energy">    -14.20266351 </i>
    <i name="e_wo_entrp">    -14.20266351 </i>
    <i name="e_0_energy">    -14.20266351 </i>
   </energy>
  </scstep>
  <scstep>
   <time name="total">    6.86    4.90</time>
   <energy>
    <i name="e_fr_energy">    -14.20266531 </i>
    <i name="e_wo_entrp">    -14.20266531 </i>
    <i name="e_0_energy">    -14.20266531 </i>
   </energy>
  </scstep>
  <scstep>
   <time name="total">    6.87    4.95</time>
   <energy>
    <i name="alphaZ">      0.05559414 </i>
    <i name="ewald">    151.33275793 </i>
    <i name="hartreedc">   -545.39455304 </i>
    <i name="XCdc">     34.00012296 </i>
    <i name="pawpsdc">    542.88667374 </i>
    <i name="pawaedc">   -544.97772800 </i>
    <i name="eentropy">     -0.00000000 </i>
    <i name="bandstr">   -109.43746182 </i>
    <i name="atom">    457.33192828 </i>
    <i name="e_fr_energy">    -14.20266581 </i>
    <i name="e_wo_entrp">    -14.20266581 </i>
    <i name="e_0_energy">    -14.20266581 </i>
   </energy>
  </scstep>
  <structure>
   <crystal>
    <varray name="basis" >
     <v>      11.10380000       0.00000000       0.00000000 </v>
     <v>       0.00000000      11.20020000       0.00000000 </v>
     <v>       0.00000000       0.00000000      32.43460000 </v>
    </varray>
    <i name="volume">   4033.72191804 </i>
    <varray name="rec_basis" >
     <v>       0.09005926       0.00000000       0.00000000 </v>
     <v>       0.00000000       0.08928412       0.00000000 </v>
     <v>       0.00000000       0.00000000       0.03083127 </v>
    </varray>
   </crystal>
   <varray name="positions" >
    <v>       0.48229000       0.65286000       0.50903000 </v>
    <v>       0.48229000       0.78877000       0.50115000 </v>
    <v>       0.48229000       0.72793000       0.52332000 </v>
   </varray>
  </structure>
  <varray name="forces" >
   <v>       0.00000000      -0.54390648      -0.31662741 </v>
   <v>       0.00000000      -0.61607139       0.62606488 </v>
   <v>      -0.00000000       1.15997787      -0.30943747 </v>
  </varray>
  <varray name="stress" >
   <v>      -0.02023914       0.00000000       0.00000000 </v>
   <v>       0.00000000      -0.00383768       0.27632267 </v>
   <v>       0.00000000       0.27632267      -0.14491954 </v>
  </varray>
  <energy>
   <i name="e_fr_energy">    -14.20266581 </i>
   <i name="e_wo_entrp">    -14.20266581 </i>
   <i name="e_0_energy">    -14.20266581 </i>
  </energy>
  <time name="totalsc">  175.38  124.89</time>
 </calculation>
 <calculation>
  <scstep>
   <time name="total">    7.19    5.01</time>
   <energy>
    <i name="alphaZ">      0.05559414 </i>
    <i name="ewald">    153.89711841 </i>
    <i name="hartreedc">   -543.22262958 </i>
    <i name="XCdc">     33.88382984 </i>
    <i name="pawpsdc">    548.44185171 </i>
    <i name="pawaedc">   -550.42263041 </i>
    <i name="eentropy">     -0.00000000 </i>
    <i name="bandstr">   -111.12390960 </i>
    <i name="atom">    457.33192828 </i>
    <i name="e_fr_energy">    -11.15884721 </i>
    <i name="e_wo_entrp">    -11.15884721 </i>
    <i name="e_0_energy">    -11.15884721 </i>
   </energy>
  </scstep>
  <scstep>
   <time name="total">    7.35    5.01</time>
   <energy>
    <i name="e_fr_energy">    -13.26828932 </i>
    <i name="e_wo_entrp">    -13.26828932 </i>
    <i name="e_0_energy">    -13.26828932 </i>
   </energy>
  </scstep>
  <scstep>
   <time name="total">    8.33    5.14</time>
   <energy>
    <i name="e_fr_energy">    -13.82947009 </i>
    <i name="e_wo_entrp">    -13.82947009 </i>
    <i name="e_0_energy">    -13.82947009 </i>
   </energy>
  </scstep>
  <scstep>
   <time name="total">    7.02    4.91</time>
   <energy>
    <i name="e_fr_energy">    -13.94658737 </i>
    <i name="e_wo_entrp">    -13.94658737 </i>
    <i name="e_0_energy">    -13.94658737 </i>
   </energy>
  </scstep>
  <scstep>
   <time name="total">    7.38    4.99</time>
   <energy>
    <i name="e_fr_energy">    -13.96817075 </i>
    <i name="e_wo_entrp">    -13.96817075 </i>
    <i name="e_0_energy">    -13.96817075 </i>
   </energy>
  </scstep>
  <scstep>
   <time name="total">    8.08    4.97</time>
   <energy>
    <i name="e_fr_energy">    -13.97312933 </i>
    <i name="e_wo_entrp">    -13.97312933 </i>
    <i name="e_0_energy">    -13.97312933 </i>
   </energy>
  </scstep>
  <scstep>
   <time name="total">    8.00    5.07</time>
   <energy>
    <i name="e_fr_energy">    -13.97444335 </i>
    <i name="e_wo_entrp">    -13.97444335 </i>
    <i name="e_0_energy">    -13.97444335 </i>
   </energy>
  </scstep>
  <scstep>
   <time name="total">    8.28    5.04</time>
   <energy>
    <i name="e_fr_energy">    -13.97491418 </i>
    <i name="e_wo_entrp">    -13.97491418 </i>
    <i name="e_0_energy">    -13.97491418 </i>
   </energy>
  </scstep>
  <scstep>
   <time name="total">    6.87    4.87</time>
   <energy>
    <i name="e_fr_energy">    -13.97507717 </i>
    <i name="e_wo_entrp">    -13.97507717 </i>
    <i name="e_0_energy">    -13.97507717 </i>
   </energy>
  </scstep>
  <scstep>
   <time name="total">    8.62    5.11</time>
   <energy>
    <i name="e_fr_energy">    -13.97512214 </i>
    <i name="e_wo_entrp">    -13.97512214 </i>
    <i name="e_0_energy">    -13.97512214 </i>
   </energy>
  </scstep>
  <scstep>
   <time name="total">    7.42    5.04</time>
   <energy>
    <i name="e_fr_energy">    -13.97513141 </i>
    <i name="e_wo_entrp">    -13.97513141 </i>
    <i name="e_0_energy">    -13.97513141 </i>
   </energy>
  </scstep>
  <scstep>
   <time name="total">    7.25    5.03</time>
   <energy>
    <i name="e_fr_energy">    -13.97513359 </i>
    <i name="e_wo_entrp">    -13.97513359 </i>
    <i name="e_0_energy">    -13.97513359 </i>
   </energy>
  </scstep>
  <scstep>
   <time name="total">    7.27    4.99</time>
   <energy>
    <i name="alphaZ">      0.05559414 </i>
    <i name="ewald">    153.89711841 </i>
    <i name="hartreedc">   -547.20867049 </i>
    <i name="XCdc">     34.09829877 </i>
    <i name="pawpsdc">    553.05304165 </i>
    <i name="pawaedc">   -555.16972814 </i>
    <i name="eentropy">     -0.00000000 </i>
    <i name="bandstr">   -110.03271672 </i>
    <i name="atom">    457.33192828 </i>
    <i name="e_fr_energy">    -13.97513409 </i>
    <i name="e_wo_entrp">    -13.97513409 </i>
    <i name="e_0_energy">    -13.97513409 </i>
   </energy>
  </scstep>
  <structure>
   <crystal>
    <varray name="basis" >
     <v>      11.10380000       0.00000000       0.00000000 </v>
     <v>       0.00000000      11.20020000       0.00000000 </v>
     <v>       0.00000000       0.00000000      32.43460000 </v>
    </varray>
    <i name="volume">   4033.72191804 </i>
    <varray name="rec_basis" >
     <v>       0.09005926       0.00000000       0.00000000 </v>
     <v>       0.00000000       0.08928412       0.00000000 </v>
     <v>       0.00000000       0.00000000       0.03083127 </v>
    </varray>
   </crystal>
   <varray name="positions" >
    <v>       0.48229000       0.65051723       0.50855905 </v>
    <v>       0.48229000       0.78611639       0.50208120 </v>
    <v>       0.48229000       0.73292638       0.52285975 </v>
   </varray>
  </structure>
  <varray name="forces" >
   <v>       0.00000000       2.24143788       1.11980625 </v>
   <v>       0.00000000       3.14819411      -3.57733435 </v>
   <v>      -0.00000000      -5.38963199       2.45752810 </v>
  </varray>
  <varray name="stress" >
   <v>      -0.02119249       0.00000000       0.00000000 </v>
   <v>       0.00000000      -0.09709300      -1.25746333 </v>
   <v>       0.00000000      -1.25746333       0.72722584 </v>
  </varray>
  <energy>
   <i name="e_fr_energy">    -13.97513409 </i>
   <i name="e_wo_entrp">    -13.97513409 </i>
   <i name="e_0_energy">    -13.97513409 </i>
  </energy>
  <time name="totalsc">  148.80   98.30</time>
 </calculation>
 <calculation>
  <scstep>
   <time name="total">    6.75    4.95</time>
   <energy>
    <i name="alphaZ">      0.05559414 </i>
    <i name="ewald">    151.64064251 </i>
    <i name="hartreedc">   -544.20780229 </i>
    <i name="XCdc">     33.93916921 </i>
    <i name="pawpsdc">    548.04050056 </i>
    <i name="pawaedc">   -550.03003754 </i>
    <i name="eentropy">     -0.00000000 </i>
    <i name="bandstr">   -109.14787452 </i>
    <i name="atom">    457.33192828 </i>
    <i name="e_fr_energy">    -12.37787966 </i>
    <i name="e_wo_entrp">    -12.37787966 </i>
    <i name="e_0_energy">    -12.37787966 </i>
   </energy>
  </scstep>
  <scstep>
   <time name="total">    6.86    4.96</time>
   <energy>
    <i name="e_fr_energy">    -13.75887491 </i>
    <i name="e_wo_entrp">    -13.75887491 </i>
    <i name="e_0_energy">    -13.75887491 </i>
   </energy>
  </scstep>
  <scstep>
   <time name="total">    6.76    4.93</time>
   <energy>
    <i name="e_fr_energy">    -14.12116594 </i>
    <i name="e_wo_entrp">    -14.12116594 </i>
    <i name="e_0_energy">    -14.12116594 </i>
   </energy>
  </scstep>
  <scstep>
   <time name="total">    7.01    5.04</time>
   <energy>
    <i name="e_fr_energy">    -14.19661097 </i>
    <i name="e_wo_entrp">    -14.19661097 </i>
    <i name="e_0_energy">    -14.19661097 </i>
   </energy>
  </scstep>
  <scstep>
   <time name="total">    7.26    5.00</time>
   <energy>
    <i name="e_fr_energy">    -14.21028634 </i>
    <i name="e_wo_entrp">    -14.21028634 </i>
    <i name="e_0_energy">    -14.21028634 </i>
   </energy>
  </scstep>
  <scstep>
   <time name="total">    6.67    4.93</time>
   <energy>
    <i name="e_fr_energy">    -14.21339982 </i>
    <i name="e_wo_entrp">    -14.21339982 </i>
    <i name="e_0_energy">    -14.21339982 </i>
   </energy>
  </scstep>
  <scstep>
   <time name="total">    7.06    5.12</time>
   <energy>
    <i name="e_fr_energy">    -14.21420925 </i>
    <i name="e_wo_entrp">    -14.21420925 </i>
    <i name="e_0_energy">    -14.21420925 </i>
   </energy>
  </scstep>
  <scstep>
   <time name="total">    7.26    5.03</time>
   <energy>
    <i name="e_fr_energy">    -14.21449396 </i>
    <i name="e_wo_entrp">    -14.21449396 </i>
    <i name="e_0_energy">    -14.21449396 </i>
   </energy>
  </scstep>
  <scstep>
   <time name="total">    6.77    4.92</time>
   <energy>
    <i name="e_fr_energy">    -14.21459069 </i>
    <i name="e_wo_entrp">    -14.21459069 </i>
    <i name="e_0_energy">    -14.21459069 </i>
   </energy>
  </scstep>
  <scstep>
   <time name="total">    7.05    4.98</time>
   <energy>
    <i name="e_fr_energy">    -14.21461628 </i>
    <i name="e_wo_entrp">    -14.21461628 </i>
    <i name="e_0_energy">    -14.21461628 </i>
   </energy>
  </scstep>
  <scstep>
   <time name="total">    7.48    5.01</time>
   <energy>
    <i name="e_fr_energy">    -14.21462114 </i>
    <i name="e_wo_entrp">    -14.21462114 </i>
    <i name="e_0_energy">    -14.21462114 </i>
   </energy>
  </scstep>
  <scstep>
   <time name="total">    6.66    5.07</time>
   <energy>
    <i name="alphaZ">      0.05559414 </i>
    <i name="ewald">    151.64064251 </i>
    <i name="hartreedc">   -545.65040953 </i>
    <i name="XCdc">     34.01249915 </i>
    <i name="pawpsdc">    543.82398771 </i>
    <i name="pawaedc">   -545.91716616 </i>
    <i name="eentropy">     -0.00000000 </i>
    <i name="bandstr">   -109.51169819 </i>
    <i name="atom">    457.33192828 </i>
    <i name="e_fr_energy">    -14.21462210 </i>
    <i name="e_wo_entrp">    -14.21462210 </i>
    <i name="e_0_energy">    -14.21462210 </i>
   </energy>
  </scstep>
  <structure>
   <crystal>
    <varray name="basis" >
     <v>      11.10380000       0.00000000       0.00000000 </v>
     <v>       0.00000000      11.20020000       0.00000000 </v>
     <v>       0.00000000       0.00000000      32.43460000 </v>
    </varray>
    <i name="volume">   4033.72191804 </i>
    <varray name="rec_basis" >
     <v>       0.09005926       0.00000000       0.00000000 </v>
     <v>       0.00000000       0.08928412       0.00000000 </v>
     <v>       0.00000000       0.00000000       0.03083127 </v>
    </varray>
   </crystal>
   <varray name="positions" >
    <v>       0.48229000       0.65241123       0.50893979 </v>
    <v>       0.48229000       0.78826168       0.50132838 </v>
    <v>       0.48229000       0.72888709       0.52323184 </v>
   </varray>
  </structure>
  <varray name="forces" >
   <v>      -0.00000000       0.09441434       0.03476301 </v>
   <v>       0.00000000      -0.05382676       0.03190023 </v>
   <v>      -0.00000000      -0.04058757      -0.06666324 </v>
  </varray>
  <varray name="stress" >
   <v>      -0.01984063       0.00000000       0.00000000 </v>
   <v>       0.00000000      -0.06506278      -0.00247163 </v>
   <v>       0.00000000      -0.00247163      -0.03932788 </v>
  </varray>
  <energy>
   <i name="e_fr_energy">    -14.21462210 </i>
   <i name="e_wo_entrp">    -14.21462210 </i>
   <i name="e_0_energy">    -14.21462210 </i>
  </energy>
  <time name="totalsc">  133.28   93.29</time>
 </calculation>
 <calculation>
  <scstep>
   <time name="total">    7.84    5.08</time>
   <energy>
    <i name="alphaZ">      0.05559414 </i>
    <i name="ewald">    151.63592747 </i>
    <i name="hartreedc">   -545.64961615 </i>
    <i name="XCdc">     34.01248722 </i>
    <i name="pawpsdc">    543.80990947 </i>
    <i name="pawaedc">   -545.90302378 </i>
    <i name="eentropy">     -0.00000000 </i>
    <i name="bandstr">   -109.50781246 </i>
    <i name="atom">    457.33192828 </i>
    <i name="e_fr_energy">    -14.21460583 </i>
    <i name="e_wo_entrp">    -14.21460583 </i>
    <i name="e_0_energy">    -14.21460583 </i>
   </energy>
  </scstep>
  <scstep>
   <time name="total">    7.71    5.02</time>
   <energy>
    <i name="e_fr_energy">    -14.21462003 </i>
    <i name="e_wo_entrp">    -14.21462003 </i>
    <i name="e_0_energy">    -14.21462003 </i>
   </energy>
  </scstep>
  <scstep>
   <time name="total">    6.65    4.99</time>
   <energy>
    <i name="e_fr_energy">    -14.21462382 </i>
    <i name="e_wo_entrp">    -14.21462382 </i>
    <i name="e_0_energy">    -14.21462382 </i>
   </energy>
  </scstep>
  <scstep>
   <time name="total">    7.46    5.05</time>
   <energy>
    <i name="e_fr_energy">    -14.21462458 </i>
    <i name="e_wo_entrp">    -14.21462458 </i>
    <i name="e_0_energy">    -14.21462458 </i>
   </energy>
  </scstep>
  <scstep>
   <time name="total">    7.22    4.96</time>
   <energy>
    <i name="e_fr_energy">    -14.21462472 </i>
    <i name="e_wo_entrp">    -14.21462472 </i>
    <i name="e_0_energy">    -14.21462472 </i>
   </energy>
  </scstep>
  <scstep>
   <time name="total">    7.41    4.96</time>
   <energy>
    <i name="alphaZ">      0.05559414 </i>
    <i name="ewald">    151.63592747 </i>
    <i name="hartreedc">   -545.64809517 </i>
    <i name="XCdc">     34.01239989 </i>
    <i name="pawpsdc">    543.80015143 </i>
    <i name="pawaedc">   -545.89326835 </i>
    <i name="eentropy">     -0.00000000 </i>
    <i name="bandstr">   -109.50926243 </i>
    <i name="atom">    457.33192828 </i>
    <i name="e_fr_energy">    -14.21462475 </i>
    <i name="e_wo_entrp">    -14.21462475 </i>
    <i name="e_0_energy">    -14.21462475 </i>
   </energy>
  </scstep>
  <structure>
   <crystal>
    <varray name="basis" >
     <v>      11.10380000       0.00000000       0.00000000 </v>
     <v>       0.00000000      11.20020000       0.00000000 </v>
     <v>       0.00000000       0.00000000      32.43460000 </v>
    </varray>
    <i name="volume">   4033.72191804 </i>
    <varray name="rec_basis" >
     <v>       0.09005926       0.00000000       0.00000000 </v>
     <v>       0.00000000       0.08928412       0.00000000 </v>
     <v>       0.00000000       0.00000000       0.03083127 </v>
    </varray>
   </crystal>
   <varray name="positions" >
    <v>       0.48229000       0.65241728       0.50894100 </v>
    <v>       0.48229000       0.78826854       0.50132597 </v>
    <v>       0.48229000       0.72887418       0.52323303 </v>
   </varray>
  </structure>
  <varray name="forces" >
   <v>       0.00000000       0.08579185       0.02995018 </v>
   <v>       0.00000000      -0.06088007       0.04014799 </v>
   <v>      -0.00000000      -0.02491178      -0.07009817 </v>
  </varray>
  <varray name="stress" >
   <v>      -0.02056347       0.00000000       0.00000000 </v>
   <v>       0.00000000      -0.06450879       0.00125949 </v>
   <v>       0.00000000       0.00125949      -0.04139186 </v>
  </varray>
  <energy>
   <i name="e_fr_energy">    -14.21462475 </i>
   <i name="e_wo_entrp">    -14.21462475 </i>
   <i name="e_0_energy">    -14.21462475 </i>
  </energy>
  <time name="totalsc">   95.14   63.62</time>
 </calculation>
 <calculation>
  <scstep>
   <time name="total">    6.85    5.02</time>
   <energy>
    <i name="alphaZ">      0.05559414 </i>
    <i name="ewald">    152.60909036 </i>
    <i name="hartreedc">   -546.10042374 </i>
    <i name="XCdc">     34.03515876 </i>
    <i name="pawpsdc">    545.92557088 </i>
    <i name="pawaedc">   -548.03182714 </i>
    <i name="eentropy">     -0.00000000 </i>
    <i name="bandstr">   -110.03067561 </i>
    <i name="atom">    457.33192828 </i>
    <i name="e_fr_energy">    -14.20558409 </i>
    <i name="e_wo_entrp">    -14.20558409 </i>
    <i name="e_0_energy">    -14.20558409 </i>
   </energy>
  </scstep>
  <scstep>
   <time name="total">    6.85    5.03</time>
   <energy>
    <i name="e_fr_energy">    -14.21175315 </i>
    <i name="e_wo_entrp">    -14.21175315 </i>
    <i name="e_0_energy">    -14.21175315 </i>
   </energy>
  </scstep>
  <scstep>
   <time name="total">    7.38    5.01</time>
   <energy>
    <i name="e_fr_energy">    -14.21365987 </i>
    <i name="e_wo_entrp">    -14.21365987 </i>
    <i name="e_0_energy">    -14.21365987 </i>
   </energy>
  </scstep>
  <scstep>
   <time name="total">    7.66    5.02</time>
   <energy>
    <i name="e_fr_energy">    -14.21405550 </i>
    <i name="e_wo_entrp">    -14.21405550 </i>
    <i name="e_0_energy">    -14.21405550 </i>
   </energy>
  </scstep>
  <scstep>
   <time name="total">    7.84    5.06</time>
   <energy>
    <i name="e_fr_energy">    -14.21412368 </i>
    <i name="e_wo_entrp">    -14.21412368 </i>
    <i name="e_0_energy">    -14.21412368 </i>
   </energy>
  </scstep>
  <scstep>
   <time name="total">    6.67    4.85</time>
   <energy>
    <i name="e_fr_energy">    -14.21413867 </i>
    <i name="e_wo_entrp">    -14.21413867 </i>
    <i name="e_0_energy">    -14.21413867 </i>
   </energy>
  </scstep>
  <scstep>
   <time name="total">    7.91    5.10</time>
   <energy>
    <i name="e_fr_energy">    -14.21414219 </i>
    <i name="e_wo_entrp">    -14.21414219 </i>
    <i name="e_0_energy">    -14.21414219 </i>
   </energy>
  </scstep>
  <scstep>
   <time name="total">    8.25    5.12</time>
   <energy>
    <i name="e_fr_energy">    -14.21414328 </i>
    <i name="e_wo_entrp">    -14.21414328 </i>
    <i name="e_0_energy">    -14.21414328 </i>
   </energy>
  </scstep>
  <scstep>
   <time name="total">    7.17    4.94</time>
   <energy>
    <i name="alphaZ">      0.05559414 </i>
    <i name="ewald">    152.60909036 </i>
    <i name="hartreedc">   -546.41793400 </i>
    <i name="XCdc">     34.05125682 </i>
    <i name="pawpsdc">    547.04473780 </i>
    <i name="pawaedc">   -549.14523499 </i>
    <i name="eentropy">     -0.00000000 </i>
    <i name="bandstr">   -109.74358204 </i>
    <i name="atom">    457.33192828 </i>
    <i name="e_fr_energy">    -14.21414365 </i>
    <i name="e_wo_entrp">    -14.21414365 </i>
    <i name="e_0_energy">    -14.21414365 </i>
   </energy>
  </scstep>
  <structure>
   <crystal>
    <varray name="basis" >
     <v>      11.10380000       0.00000000       0.00000000 </v>
     <v>       0.00000000      11.20020000       0.00000000 </v>
     <v>       0.00000000       0.00000000      32.43460000 </v>
    </varray>
    <i name="volume">   4033.72191804 </i>
    <varray name="rec_basis" >
     <v>       0.09005926       0.00000000       0.00000000 </v>
     <v>       0.00000000       0.08928412       0.00000000 </v>
     <v>       0.00000000       0.00000000       0.03083127 </v>
    </varray>
   </crystal>
   <varray name="positions" >
    <v>       0.48229000       0.65271196       0.50897533 </v>
    <v>       0.48229000       0.78803196       0.50138193 </v>
    <v>       0.48229000       0.72881608       0.52314274 </v>
   </varray>
  </structure>
  <varray name="forces" >
   <v>       0.00000000      -0.14475751      -0.09191635 </v>
   <v>       0.00000000       0.09949570      -0.12746158 </v>
   <v>      -0.00000000       0.04526181       0.21937794 </v>
  </varray>
  <varray name="stress" >
   <v>      -0.02079213       0.00000000       0.00000000 </v>
   <v>       0.00000000       0.05586429      -0.00161037 </v>
   <v>       0.00000000      -0.00161037       0.02790232 </v>
  </varray>
  <energy>
   <i name="e_fr_energy">    -14.21414365 </i>
   <i name="e_wo_entrp">    -14.21414365 </i>
   <i name="e_0_energy">    -14.21414365 </i>
  </energy>
  <time name="totalsc">  118.62   78.48</time>
 </calculation>
 <calculation>
  <scstep>
   <time name="total">    6.38    4.96</time>
   <energy>
    <i name="alphaZ">      0.05559414 </i>
    <i name="ewald">    151.93631184 </i>
    <i name="hartreedc">   -546.09288287 </i>
    <i name="XCdc">     34.03485055 </i>
    <i name="pawpsdc">    545.57793607 </i>
    <i name="pawaedc">   -547.66886489 </i>
    <i name="eentropy">     -0.00000000 </i>
    <i name="bandstr">   -109.38553982 </i>
    <i name="atom">    457.33192828 </i>
    <i name="e_fr_energy">    -14.21066669 </i>
    <i name="e_wo_entrp">    -14.21066669 </i>
    <i name="e_0_energy">    -14.21066669 </i>
   </energy>
  </scstep>
  <scstep>
   <time name="total">    7.10    4.99</time>
   <energy>
    <i name="e_fr_energy">    -14.21360830 </i>
    <i name="e_wo_entrp">    -14.21360830 </i>
    <i name="e_0_energy">    -14.21360830 </i>
   </energy>
  </scstep>
  <scstep>
   <time name="total">    6.78    4.88</time>
   <energy>
    <i name="e_fr_energy">    -14.21451533 </i>
    <i name="e_wo_entrp">    -14.21451533 </i>
    <i name="e_0_energy">    -14.21451533 </i>
   </energy>
  </scstep>
  <scstep>
   <time name="total">    6.90    4.98</time>
   <energy>
    <i name="e_fr_energy">    -14.21470225 </i>
    <i name="e_wo_entrp">    -14.21470225 </i>
    <i name="e_0_energy">    -14.21470225 </i>
   </energy>
  </scstep>
  <scstep>
   <time name="total">    6.98    4.94</time>
   <energy>
    <i name="e_fr_energy">    -14.21473498 </i>
    <i name="e_wo_entrp">    -14.21473498 </i>
    <i name="e_0_energy">    -14.21473498 </i>
   </energy>
  </scstep>
  <scstep>
   <time name="total">    6.78    4.95</time>
   <energy>
    <i name="e_fr_energy">    -14.21474209 </i>
    <i name="e_wo_entrp">    -14.21474209 </i>
    <i name="e_0_energy">    -14.21474209 </i>
   </energy>
  </scstep>
  <scstep>
   <time name="total">    7.79    5.13</time>
   <energy>
    <i name="e_fr_energy">    -14.21474378 </i>
    <i name="e_wo_entrp">    -14.21474378 </i>
    <i name="e_0_energy">    -14.21474378 </i>
   </energy>
  </scstep>
  <scstep>
   <time name="total">    7.12    4.99</time>
   <energy>
    <i name="alphaZ">      0.05559414 </i>
    <i name="ewald">    151.93631184 </i>
    <i name="hartreedc">   -545.88397168 </i>
    <i name="XCdc">     34.02428996 </i>
    <i name="pawpsdc">    544.79350382 </i>
    <i name="pawaedc">   -546.88897567 </i>
    <i name="eentropy">     -0.00000000 </i>
    <i name="bandstr">   -109.58342504 </i>
    <i name="atom">    457.33192828 </i>
    <i name="e_fr_energy">    -14.21474435 </i>
    <i name="e_wo_entrp">    -14.21474435 </i>
    <i name="e_0_energy">    -14.21474435 </i>
   </energy>
  </scstep>
  <structure>
   <crystal>
    <varray name="basis" >
     <v>      11.10380000       0.00000000       0.00000000 </v>
     <v>       0.00000000      11.20020000       0.00000000 </v>
     <v>       0.00000000       0.00000000      32.43460000 </v>
    </varray>
    <i name="volume">   4033.72191804 </i>
    <varray name="rec_basis" >
     <v>       0.09005926       0.00000000       0.00000000 </v>
     <v>       0.00000000       0.08928412       0.00000000 </v>
     <v>       0.00000000       0.00000000       0.03083127 </v>
    </varray>
   </crystal>
   <varray name="positions" >
    <v>       0.48229000       0.65250855       0.50895164 </v>
    <v>       0.48229000       0.78819527       0.50134330 </v>
    <v>       0.48229000       0.72885618       0.52320506 </v>
   </varray>
  </structure>
  <varray name="forces" >
   <v>      -0.00000000       0.01512566      -0.00745598 </v>
   <v>      -0.00000000      -0.01177312      -0.01133880 </v>
   <v>       0.00000000      -0.00335254       0.01879478 </v>
  </varray>
  <varray name="stress" >
   <v>      -0.02088617       0.00000000       0.00000000 </v>
   <v>       0.00000000      -0.02766872       0.00038346 </v>
   <v>       0.00000000       0.00038346      -0.02020686 </v>
  </varray>
  <energy>
   <i name="e_fr_energy">    -14.21474435 </i>
   <i name="e_wo_entrp">    -14.21474435 </i>
   <i name="e_0_energy">    -14.21474435 </i>
  </energy>
  <time name="totalsc">  105.68   73.42</time>
 </calculation>
 <calculation>
  <scstep>
   <time name="total">    7.11    5.04</time>
   <energy>
    <i name="alphaZ">      0.05559414 </i>
    <i name="ewald">    151.93708345 </i>
    <i name="hartreedc">   -545.87543858 </i>
    <i name="XCdc">     34.02395177 </i>
    <i name="pawpsdc">    544.65883941 </i>
    <i name="pawaedc">   -546.75267783 </i>
    <i name="eentropy">     -0.00000000 </i>
    <i name="bandstr">   -109.59383307 </i>
    <i name="atom">    457.33192828 </i>
    <i name="e_fr_energy">    -14.21455243 </i>
    <i name="e_wo_entrp">    -14.21455243 </i>
    <i name="e_0_energy">    -14.21455243 </i>
   </energy>
  </scstep>
  <scstep>
   <time name="total">    7.37    4.99</time>
   <energy>
    <i name="e_fr_energy">    -14.21471304 </i>
    <i name="e_wo_entrp">    -14.21471304 </i>
    <i name="e_0_energy">    -14.21471304 </i>
   </energy>
  </scstep>
  <scstep>
   <time name="total">    7.27    5.05</time>
   <energy>
    <i name="e_fr_energy">    -14.21475270 </i>
    <i name="e_wo_entrp">    -14.21475270 </i>
    <i name="e_0_energy">    -14.21475270 </i>
   </energy>
  </scstep>
  <scstep>
   <time name="total">    7.07    4.98</time>
   <energy>
    <i name="e_fr_energy">    -14.21476070 </i>
    <i name="e_wo_entrp">    -14.21476070 </i>
    <i name="e_0_energy">    -14.21476070 </i>
   </energy>
  </scstep>
  <scstep>
   <time name="total">    6.93    4.99</time>
   <energy>
    <i name="e_fr_energy">    -14.21476196 </i>
    <i name="e_wo_entrp">    -14.21476196 </i>
    <i name="e_0_energy">    -14.21476196 </i>
   </energy>
  </scstep>
  <scstep>
   <time name="total">    6.75    4.92</time>
   <energy>
    <i name="alphaZ">      0.05559414 </i>
    <i name="ewald">    151.93708345 </i>
    <i name="hartreedc">   -545.88319772 </i>
    <i name="XCdc">     34.02429376 </i>
    <i name="pawpsdc">    544.76382932 </i>
    <i name="pawaedc">   -546.85875813 </i>
    <i name="eentropy">     -0.00000000 </i>
    <i name="bandstr">   -109.58553534 </i>
    <i name="atom">    457.33192828 </i>
    <i name="e_fr_energy">    -14.21476222 </i>
    <i name="e_wo_entrp">    -14.21476222 </i>
    <i name="e_0_energy">    -14.21476222 </i>
   </energy>
  </scstep>
  <structure>
   <crystal>
    <varray name="basis" >
     <v>      11.10380000       0.00000000       0.00000000 </v>
     <v>       0.00000000      11.20020000       0.00000000 </v>
     <v>       0.00000000       0.00000000      32.43460000 </v>
    </varray>
    <i name="volume">   4033.72191804 </i>
    <varray name="rec_basis" >
     <v>       0.09005926       0.00000000       0.00000000 </v>
     <v>       0.00000000       0.08928412       0.00000000 </v>
     <v>       0.00000000       0.00000000       0.03083127 </v>
    </varray>
   </crystal>
   <varray name="positions" >
    <v>       0.48229000       0.65256642       0.50894489 </v>
    <v>       0.48229000       0.78814996       0.50133318 </v>
    <v>       0.48229000       0.72884362       0.52322194 </v>
   </varray>
  </structure>
  <varray name="forces" >
   <v>      -0.00000000      -0.00624204      -0.00974925 </v>
   <v>      -0.00000000      -0.01691908       0.00618331 </v>
   <v>       0.00000000       0.02316112       0.00356594 </v>
  </varray>
  <varray name="stress" >
   <v>      -0.02069640       0.00000000       0.00000000 </v>
   <v>       0.00000000      -0.02172019       0.00576883 </v>
   <v>       0.00000000       0.00576884      -0.02471680 </v>
  </varray>
  <energy>
   <i name="e_fr_energy">    -14.21476222 </i>
   <i name="e_wo_entrp">    -14.21476222 </i>
   <i name="e_0_energy">    -14.21476222 </i>
  </energy>
  <time name="totalsc">   92.90   63.55</time>
 </calculation>
 <calculation>
  <scstep>
   <time name="total">    7.22    4.96</time>
   <energy>
    <i name="alphaZ">      0.05559414 </i>
    <i name="ewald">    151.93716605 </i>
    <i name="hartreedc">   -545.88127077 </i>
    <i name="XCdc">     34.02420387 </i>
    <i name="pawpsdc">    544.74627613 </i>
    <i name="pawaedc">   -546.84099908 </i>
    <i name="eentropy">     -0.00000000 </i>
    <i name="bandstr">   -109.58765824 </i>
    <i name="atom">    457.33192828 </i>
    <i name="e_fr_energy">    -14.21475963 </i>
    <i name="e_wo_entrp">    -14.21475963 </i>
    <i name="e_0_energy">    -14.21475963 </i>
   </energy>
  </scstep>
  <scstep>
   <time name="total">    7.39    4.97</time>
   <energy>
    <i name="e_fr_energy">    -14.21476183 </i>
    <i name="e_wo_entrp">    -14.21476183 </i>
    <i name="e_0_energy">    -14.21476183 </i>
   </energy>
  </scstep>
  <scstep>
   <time name="total">    6.99    5.05</time>
   <energy>
    <i name="e_fr_energy">    -14.21476236 </i>
    <i name="e_wo_entrp">    -14.21476236 </i>
    <i name="e_0_energy">    -14.21476236 </i>
   </energy>
  </scstep>
  <scstep>
   <time name="total">    7.26    5.02</time>
   <energy>
    <i name="e_fr_energy">    -14.21476247 </i>
    <i name="e_wo_entrp">    -14.21476247 </i>
    <i name="e_0_energy">    -14.21476247 </i>
   </energy>
  </scstep>
  <scstep>
   <time name="total">    7.32    5.06</time>
   <energy>
    <i name="e_fr_energy">    -14.21476249 </i>
    <i name="e_wo_entrp">    -14.21476249 </i>
    <i name="e_0_energy">    -14.21476249 </i>
   </energy>
  </scstep>
  <scstep>
   <time name="total">    7.04    4.99</time>
   <energy>
    <i name="alphaZ">      0.05559414 </i>
    <i name="ewald">    151.93716605 </i>
    <i name="hartreedc">   -545.88226483 </i>
    <i name="XCdc">     34.02424709 </i>
    <i name="pawpsdc">    544.75945306 </i>
    <i name="pawaedc">   -546.85430673 </i>
    <i name="eentropy">     -0.00000000 </i>
    <i name="bandstr">   -109.58657954 </i>
    <i name="atom">    457.33192828 </i>
    <i name="e_fr_energy">    -14.21476249 </i>
    <i name="e_wo_entrp">    -14.21476249 </i>
    <i name="e_0_energy">    -14.21476249 </i>
   </energy>
  </scstep>
  <structure>
   <crystal>
    <varray name="basis" >
     <v>      11.10380000       0.00000000       0.00000000 </v>
     <v>       0.00000000      11.20020000       0.00000000 </v>
     <v>       0.00000000       0.00000000      32.43460000 </v>
    </varray>
    <i name="volume">   4033.72191804 </i>
    <varray name="rec_basis" >
     <v>       0.09005926       0.00000000       0.00000000 </v>
     <v>       0.00000000       0.08928412       0.00000000 </v>
     <v>       0.00000000       0.00000000       0.03083127 </v>
    </varray>
   </crystal>
   <varray name="positions" >
    <v>       0.48229000       0.65257318       0.50894410 </v>
    <v>       0.48229000       0.78814467       0.50133199 </v>
    <v>       0.48229000       0.72884215       0.52322391 </v>
   </varray>
  </structure>
  <varray name="forces" >
   <v>      -0.00000000      -0.00864086      -0.00982157 </v>
   <v>      -0.00000000      -0.01750724       0.00835819 </v>
   <v>       0.00000000       0.02614810       0.00146338 </v>
  </varray>
  <varray name="stress" >
   <v>      -0.02063304       0.00000000       0.00000000 </v>
   <v>       0.00000000      -0.02096892       0.00638695 </v>
   <v>       0.00000000       0.00638695      -0.02513402 </v>
  </varray>
  <energy>
   <i name="e_fr_energy">    -14.21476249 </i>
   <i name="e_wo_entrp">    -14.21476249 </i>
   <i name="e_0_energy">    -14.21476249 </i>
  </energy>
  <time name="totalsc">   94.80   63.49</time>
 </calculation>
 <calculation>
  <scstep>
   <time name="total">    7.24    5.04</time>
   <energy>
    <i name="alphaZ">      0.05559414 </i>
    <i name="ewald">    151.93707079 </i>
    <i name="hartreedc">   -545.87606252 </i>
    <i name="XCdc">     34.02398697 </i>
    <i name="pawpsdc">    544.67903382 </i>
    <i name="pawaedc">   -546.77299229 </i>
    <i name="eentropy">     -0.00000000 </i>
    <i name="bandstr">   -109.59324810 </i>
    <i name="atom">    457.33192828 </i>
    <i name="e_fr_energy">    -14.21468891 </i>
    <i name="e_wo_entrp">    -14.21468891 </i>
    <i name="e_0_energy">    -14.21468891 </i>
   </energy>
  </scstep>
  <scstep>
   <time name="total">    7.12    5.01</time>
   <energy>
    <i name="e_fr_energy">    -14.21475177 </i>
    <i name="e_wo_entrp">    -14.21475177 </i>
    <i name="e_0_energy">    -14.21475177 </i>
   </energy>
  </scstep>
  <scstep>
   <time name="total">    7.32    5.11</time>
   <energy>
    <i name="e_fr_energy">    -14.21476720 </i>
    <i name="e_wo_entrp">    -14.21476720 </i>
    <i name="e_0_energy">    -14.21476720 </i>
   </energy>
  </scstep>
  <scstep>
   <time name="total">    7.28    5.12</time>
   <energy>
    <i name="e_fr_energy">    -14.21477034 </i>
    <i name="e_wo_entrp">    -14.21477034 </i>
    <i name="e_0_energy">    -14.21477034 </i>
   </energy>
  </scstep>
  <scstep>
   <time name="total">    7.83    5.01</time>
   <energy>
    <i name="e_fr_energy">    -14.21477085 </i>
    <i name="e_wo_entrp">    -14.21477085 </i>
    <i name="e_0_energy">    -14.21477085 </i>
   </energy>
  </scstep>
  <scstep>
   <time name="total">    7.97    5.08</time>
   <energy>
    <i name="alphaZ">      0.05559414 </i>
    <i name="ewald">    151.93707079 </i>
    <i name="hartreedc">   -545.88042984 </i>
    <i name="XCdc">     34.02417232 </i>
    <i name="pawpsdc">    544.73809313 </i>
    <i name="pawaedc">   -546.83267341 </i>
    <i name="eentropy">     -0.00000000 </i>
    <i name="bandstr">   -109.58852636 </i>
    <i name="atom">    457.33192828 </i>
    <i name="e_fr_energy">    -14.21477095 </i>
    <i name="e_wo_entrp">    -14.21477095 </i>
    <i name="e_0_energy">    -14.21477095 </i>
   </energy>
  </scstep>
  <structure>
   <crystal>
    <varray name="basis" >
     <v>      11.10380000       0.00000000       0.00000000 </v>
     <v>       0.00000000      11.20020000       0.00000000 </v>
     <v>       0.00000000       0.00000000      32.43460000 </v>
    </varray>
    <i name="volume">   4033.72191804 </i>
    <varray name="rec_basis" >
     <v>       0.09005926       0.00000000       0.00000000 </v>
     <v>       0.00000000       0.08928412       0.00000000 </v>
     <v>       0.00000000       0.00000000       0.03083127 </v>
    </varray>
   </crystal>
   <varray name="positions" >
    <v>       0.48229000       0.65259008       0.50893763 </v>
    <v>       0.48229000       0.78810663       0.50133044 </v>
    <v>       0.48229000       0.72886329       0.52323193 </v>
   </varray>
  </structure>
  <varray name="forces" >
   <v>       0.00000000      -0.00084386      -0.00025746 </v>
   <v>       0.00000000      -0.00501660       0.00178460 </v>
   <v>      -0.00000000       0.00586045      -0.00152714 </v>
  </varray>
  <varray name="stress" >
   <v>      -0.02066770       0.00000000       0.00000000 </v>
   <v>       0.00000000      -0.02037972       0.00139289 </v>
   <v>       0.00000000       0.00139289      -0.02515885 </v>
  </varray>
  <energy>
   <i name="e_fr_energy">    -14.21477095 </i>
   <i name="e_wo_entrp">    -14.21477095 </i>
   <i name="e_0_energy">    -14.21477095 </i>
  </energy>
  <time name="totalsc">   85.77   58.30</time>
  <eigenvalues>
   <array>
    <dimension dim="1">band</dimension>
    <dimension dim="2">kpoint</dimension>
    <dimension dim="3">spin</dimension>
    <field>eigene</field>
    <field>occ</field>
    <set>
     <set comment="spin 1">
      <set comment="kpoint 1">
       <r>  -25.2831    1.0000 </r>
       <r>  -13.0852    1.0000 </r>
       <r>   -9.2428    1.0000 </r>
       <r>   -7.1833    1.0000 </r>
       <r>   -1.0285    0.0000 </r>
       <r>    0.0013    0.0000 </r>
       <r>    0.1601    0.0000 </r>
       <r>    0.3406    0.0000 </r>
       <r>    0.4920    0.0000 </r>
       <r>    0.5608    0.0000 </r>
       <r>    0.6816    0.0000 </r>
       <r>    0.8819    0.0000 </r>
       <r>    1.0542    0.0000 </r>
       <r>    1.1487    0.0000 </r>
       <r>    1.2103    0.0000 </r>
       <r>    1.2365    0.0000 </r>
      </set>
     </set>
     <set comment="spin 2">
      <set comment="kpoint 1">
       <r>  -25.2831    1.0000 </r>
       <r>  -13.0852    1.0000 </r>
       <r>   -9.2428    1.0000 </r>
       <r>   -7.1833    1.0000 </r>
       <r>   -1.0285    0.0000 </r>
       <r>    0.0013    0.0000 </r>
       <r>    0.1601    0.0000 </r>
       <r>    0.3406    0.0000 </r>
       <r>    0.4920    0.0000 </r>
       <r>    0.5608    0.0000 </r>
       <r>    0.6816    0.0000 </r>
       <r>    0.8819    0.0000 </r>
       <r>    1.0542    0.0000 </r>
       <r>    1.1487    0.0000 </r>
       <r>    1.2093    0.0000 </r>
       <r>    1.2209    0.0000 </r>
      </set>
     </set>
    </set>
   </array>
  </eigenvalues>
  <separator name="orbital magnetization" >
   <v name="MAGDIPOLOUT">      0.00000000      0.00000000      0.00000000</v>
  </separator>
  <dos>
   <i name="efermi">     -5.99448041 </i>
   <total>
    <array>
     <dimension dim="1">gridpoints</dimension>
     <dimension dim="2">spin</dimension>
     <field>energy</field>
     <field>total</field>
     <field>integrated</field>
     <set>
      <set comment="spin 1">
       <r>   -26.6091     0.0000     0.0000 </r>
       <r>   -26.5118     0.0000     0.0000 </r>
       <r>   -26.4146     0.0000     0.0000 </r>
       <r>   -26.3174     0.0000     0.0000 </r>
       <r>   -26.2201     0.0000     0.0000 </r>
       <r>   -26.1229     0.0000     0.0000 </r>
       <r>   -26.0256     0.0000     0.0000 </r>
       <r>   -25.9284     0.0000     0.0000 </r>
       <r>   -25.8312     0.0000     0.0000 </r>
       <r>   -25.7339     0.0012     0.0001 </r>
       <r>   -25.6367     0.0075     0.0008 </r>
       <r>   -25.5395     0.0519     0.0059 </r>
       <r>   -25.4422     0.3490     0.0398 </r>
       <r>   -25.3450     1.9028     0.2249 </r>
       <r>   -25.2477     4.5756     0.6698 </r>
       <r>   -25.1505     2.7186     0.9341 </r>
       <r>   -25.0533     0.5747     0.9900 </r>
       <r>   -24.9560     0.0879     0.9986 </r>
       <r>   -24.8588     0.0000     1.0000 </r>
       <r>   -24.7615     0.0000     1.0000 </r>
       <r>   -24.6643     0.0000     1.0000 </r>
       <r>   -24.5671     0.0000     1.0000 </r>
       <r>   -24.4698     0.0000     1.0000 </r>
       <r>   -24.3726     0.0000     1.0000 </r>
       <r>   -24.2754     0.0000     1.0000 </r>
       <r>   -24.1781     0.0000     1.0000 </r>
       <r>   -24.0809     0.0000     1.0000 </r>
       <r>   -23.9836     0.0000     1.0000 </r>
       <r>   -23.8864     0.0000     1.0000 </r>
       <r>   -23.7892     0.0000     1.0000 </r>
       <r>   -23.6919     0.0000     1.0000 </r>
       <r>   -23.5947     0.0000     1.0000 </r>
       <r>   -23.4974     0.0000     1.0000 </r>
       <r>   -23.4002     0.0000     1.0000 </r>
       <r>   -23.3030     0.0000     1.0000 </r>
       <r>   -23.2057     0.0000     1.0000 </r>
       <r>   -23.1085     0.0000     1.0000 </r>
       <r>   -23.0113     0.0000     1.0000 </r>
       <r>   -22.9140     0.0000     1.0000 </r>
       <r>   -22.8168     0.0000     1.0000 </r>
       <r>   -22.7195     0.0000     1.0000 </r>
       <r>   -22.6223     0.0000     1.0000 </r>
       <r>   -22.5251     0.0000     1.0000 </r>
       <r>   -22.4278     0.0000     1.0000 </r>
       <r>   -22.3306     0.0000     1.0000 </r>
       <r>   -22.2333     0.0000     1.0000 </r>
       <r>   -22.1361     0.0000     1.0000 </r>
       <r>   -22.0389     0.0000     1.0000 </r>
       <r>   -21.9416     0.0000     1.0000 </r>
       <r>   -21.8444     0.0000     1.0000 </r>
       <r>   -21.7472     0.0000     1.0000 </r>
       <r>   -21.6499     0.0000     1.0000 </r>
       <r>   -21.5527     0.0000     1.0000 </r>
       <r>   -21.4554     0.0000     1.0000 </r>
       <r>   -21.3582     0.0000     1.0000 </r>
       <r>   -21.2610     0.0000     1.0000 </r>
       <r>   -21.1637     0.0000     1.0000 </r>
       <r>   -21.0665     0.0000     1.0000 </r>
       <r>   -20.9692     0.0000     1.0000 </r>
       <r>   -20.8720     0.0000     1.0000 </r>
       <r>   -20.7748     0.0000     1.0000 </r>
       <r>   -20.6775     0.0000     1.0000 </r>
       <r>   -20.5803     0.0000     1.0000 </r>
       <r>   -20.4831     0.0000     1.0000 </r>
       <r>   -20.3858     0.0000     1.0000 </r>
       <r>   -20.2886     0.0000     1.0000 </r>
       <r>   -20.1913     0.0000     1.0000 </r>
       <r>   -20.0941     0.0000     1.0000 </r>
       <r>   -19.9969     0.0000     1.0000 </r>
       <r>   -19.8996     0.0000     1.0000 </r>
       <r>   -19.8024     0.0000     1.0000 </r>
       <r>   -19.7051     0.0000     1.0000 </r>
       <r>   -19.6079     0.0000     1.0000 </r>
       <r>   -19.5107     0.0000     1.0000 </r>
       <r>   -19.4134     0.0000     1.0000 </r>
       <r>   -19.3162     0.0000     1.0000 </r>
       <r>   -19.2190     0.0000     1.0000 </r>
       <r>   -19.1217     0.0000     1.0000 </r>
       <r>   -19.0245     0.0000     1.0000 </r>
       <r>   -18.9272     0.0000     1.0000 </r>
       <r>   -18.8300     0.0000     1.0000 </r>
       <r>   -18.7328     0.0000     1.0000 </r>
       <r>   -18.6355     0.0000     1.0000 </r>
       <r>   -18.5383     0.0000     1.0000 </r>
       <r>   -18.4410     0.0000     1.0000 </r>
       <r>   -18.3438     0.0000     1.0000 </r>
       <r>   -18.2466     0.0000     1.0000 </r>
       <r>   -18.1493     0.0000     1.0000 </r>
       <r>   -18.0521     0.0000     1.0000 </r>
       <r>   -17.9549     0.0000     1.0000 </r>
       <r>   -17.8576     0.0000     1.0000 </r>
       <r>   -17.7604     0.0000     1.0000 </r>
       <r>   -17.6631     0.0000     1.0000 </r>
       <r>   -17.5659     0.0000     1.0000 </r>
       <r>   -17.4687     0.0000     1.0000 </r>
       <r>   -17.3714     0.0000     1.0000 </r>
       <r>   -17.2742     0.0000     1.0000 </r>
       <r>   -17.1769     0.0000     1.0000 </r>
       <r>   -17.0797     0.0000     1.0000 </r>
       <r>   -16.9825     0.0000     1.0000 </r>
       <r>   -16.8852     0.0000     1.0000 </r>
       <r>   -16.7880     0.0000     1.0000 </r>
       <r>   -16.6908     0.0000     1.0000 </r>
       <r>   -16.5935     0.0000     1.0000 </r>
       <r>   -16.4963     0.0000     1.0000 </r>
       <r>   -16.3990     0.0000     1.0000 </r>
       <r>   -16.3018     0.0000     1.0000 </r>
       <r>   -16.2046     0.0000     1.0000 </r>
       <r>   -16.1073     0.0000     1.0000 </r>
       <r>   -16.0101     0.0000     1.0000 </r>
       <r>   -15.9128     0.0000     1.0000 </r>
       <r>   -15.8156     0.0000     1.0000 </r>
       <r>   -15.7184     0.0000     1.0000 </r>
       <r>   -15.6211     0.0000     1.0000 </r>
       <r>   -15.5239     0.0000     1.0000 </r>
       <r>   -15.4267     0.0000     1.0000 </r>
       <r>   -15.3294     0.0000     1.0000 </r>
       <r>   -15.2322     0.0000     1.0000 </r>
       <r>   -15.1349     0.0000     1.0000 </r>
       <r>   -15.0377     0.0000     1.0000 </r>
       <r>   -14.9405     0.0000     1.0000 </r>
       <r>   -14.8432     0.0000     1.0000 </r>
       <r>   -14.7460     0.0000     1.0000 </r>
       <r>   -14.6487     0.0000     1.0000 </r>
       <r>   -14.5515     0.0000     1.0000 </r>
       <r>   -14.4543     0.0000     1.0000 </r>
       <r>   -14.3570     0.0000     1.0000 </r>
       <r>   -14.2598     0.0000     1.0000 </r>
       <r>   -14.1626     0.0000     1.0000 </r>
       <r>   -14.0653     0.0000     1.0000 </r>
       <r>   -13.9681     0.0000     1.0000 </r>
       <r>   -13.8708     0.0000     1.0000 </r>
       <r>   -13.7736     0.0000     1.0000 </r>
       <r>   -13.6764     0.0000     1.0000 </r>
       <r>   -13.5791     0.0005     1.0001 </r>
       <r>   -13.4819     0.0032     1.0004 </r>
       <r>   -13.3846     0.0220     1.0025 </r>
       <r>   -13.2874     0.1513     1.0172 </r>
       <r>   -13.1902     0.9450     1.1091 </r>
       <r>   -13.0929     3.6218     1.4613 </r>
       <r>   -12.9957     4.0683     1.8569 </r>
       <r>   -12.8985     1.2319     1.9767 </r>
       <r>   -12.8012     0.2049     1.9966 </r>
       <r>   -12.7040     0.0300     1.9995 </r>
       <r>   -12.6067     0.0000     2.0000 </r>
       <r>   -12.5095     0.0000     2.0000 </r>
       <r>   -12.4123     0.0000     2.0000 </r>
       <r>   -12.3150     0.0000     2.0000 </r>
       <r>   -12.2178     0.0000     2.0000 </r>
       <r>   -12.1205     0.0000     2.0000 </r>
       <r>   -12.0233     0.0000     2.0000 </r>
       <r>   -11.9261     0.0000     2.0000 </r>
       <r>   -11.8288     0.0000     2.0000 </r>
       <r>   -11.7316     0.0000     2.0000 </r>
       <r>   -11.6344     0.0000     2.0000 </r>
       <r>   -11.5371     0.0000     2.0000 </r>
       <r>   -11.4399     0.0000     2.0000 </r>
       <r>   -11.3426     0.0000     2.0000 </r>
       <r>   -11.2454     0.0000     2.0000 </r>
       <r>   -11.1482     0.0000     2.0000 </r>
       <r>   -11.0509     0.0000     2.0000 </r>
       <r>   -10.9537     0.0000     2.0000 </r>
       <r>   -10.8564     0.0000     2.0000 </r>
       <r>   -10.7592     0.0000     2.0000 </r>
       <r>   -10.6620     0.0000     2.0000 </r>
       <r>   -10.5647     0.0000     2.0000 </r>
       <r>   -10.4675     0.0000     2.0000 </r>
       <r>   -10.3703     0.0000     2.0000 </r>
       <r>   -10.2730     0.0000     2.0000 </r>
       <r>   -10.1758     0.0000     2.0000 </r>
       <r>   -10.0785     0.0000     2.0000 </r>
       <r>    -9.9813     0.0000     2.0000 </r>
       <r>    -9.8841     0.0000     2.0000 </r>
       <r>    -9.7868     0.0000     2.0000 </r>
       <r>    -9.6896     0.0014     2.0001 </r>
       <r>    -9.5923     0.0081     2.0009 </r>
       <r>    -9.4951     0.0563     2.0064 </r>
       <r>    -9.3979     0.3773     2.0431 </r>
       <r>    -9.3006     2.0193     2.2394 </r>
       <r>    -9.2034     4.6091     2.6876 </r>
       <r>    -9.1062     2.5851     2.9390 </r>
       <r>    -9.0089     0.5327     2.9908 </r>
       <r>    -8.9117     0.0810     2.9987 </r>
       <r>    -8.8144     0.0000     3.0000 </r>
       <r>    -8.7172     0.0000     3.0000 </r>
       <r>    -8.6200     0.0000     3.0000 </r>
       <r>    -8.5227     0.0000     3.0000 </r>
       <r>    -8.4255     0.0000     3.0000 </r>
       <r>    -8.3283     0.0000     3.0000 </r>
       <r>    -8.2310     0.0000     3.0000 </r>
       <r>    -8.1338     0.0000     3.0000 </r>
       <r>    -8.0365     0.0000     3.0000 </r>
       <r>    -7.9393     0.0000     3.0000 </r>
       <r>    -7.8421     0.0000     3.0000 </r>
       <r>    -7.7448     0.0000     3.0000 </r>
       <r>    -7.6476     0.0010     3.0001 </r>
       <r>    -7.5503     0.0057     3.0006 </r>
       <r>    -7.4531     0.0398     3.0045 </r>
       <r>    -7.3559     0.2696     3.0307 </r>
       <r>    -7.2586     1.5500     3.1814 </r>
       <r>    -7.1614     4.3849     3.6078 </r>
       <r>    -7.0642     3.1643     3.9155 </r>
       <r>    -6.9669     0.7349     3.9870 </r>
       <r>    -6.8697     0.1146     3.9981 </r>
       <r>    -6.7724     0.0000     4.0000 </r>
       <r>    -6.6752     0.0000     4.0000 </r>
       <r>    -6.5780     0.0000     4.0000 </r>
       <r>    -6.4807     0.0000     4.0000 </r>
       <r>    -6.3835     0.0000     4.0000 </r>
       <r>    -6.2862     0.0000     4.0000 </r>
       <r>    -6.1890     0.0000     4.0000 </r>
       <r>    -6.0918     0.0000     4.0000 </r>
       <r>    -5.9945     0.0000     4.0000 </r>
       <r>    -5.8973     0.0000     4.0000 </r>
       <r>    -5.8001     0.0000     4.0000 </r>
       <r>    -5.7028     0.0000     4.0000 </r>
       <r>    -5.6056     0.0000     4.0000 </r>
       <r>    -5.5083     0.0000     4.0000 </r>
       <r>    -5.4111     0.0000     4.0000 </r>
       <r>    -5.3139     0.0000     4.0000 </r>
       <r>    -5.2166     0.0000     4.0000 </r>
       <r>    -5.1194     0.0000     4.0000 </r>
       <r>    -5.0221     0.0000     4.0000 </r>
       <r>    -4.9249     0.0000     4.0000 </r>
       <r>    -4.8277     0.0000     4.0000 </r>
       <r>    -4.7304     0.0000     4.0000 </r>
       <r>    -4.6332     0.0000     4.0000 </r>
       <r>    -4.5360     0.0000     4.0000 </r>
       <r>    -4.4387     0.0000     4.0000 </r>
       <r>    -4.3415     0.0000     4.0000 </r>
       <r>    -4.2442     0.0000     4.0000 </r>
       <r>    -4.1470     0.0000     4.0000 </r>
       <r>    -4.0498     0.0000     4.0000 </r>
       <r>    -3.9525     0.0000     4.0000 </r>
       <r>    -3.8553     0.0000     4.0000 </r>
       <r>    -3.7580     0.0000     4.0000 </r>
       <r>    -3.6608     0.0000     4.0000 </r>
       <r>    -3.5636     0.0000     4.0000 </r>
       <r>    -3.4663     0.0000     4.0000 </r>
       <r>    -3.3691     0.0000     4.0000 </r>
       <r>    -3.2719     0.0000     4.0000 </r>
       <r>    -3.1746     0.0000     4.0000 </r>
       <r>    -3.0774     0.0000     4.0000 </r>
       <r>    -2.9801     0.0000     4.0000 </r>
       <r>    -2.8829     0.0000     4.0000 </r>
       <r>    -2.7857     0.0000     4.0000 </r>
       <r>    -2.6884     0.0000     4.0000 </r>
       <r>    -2.5912     0.0000     4.0000 </r>
       <r>    -2.4939     0.0000     4.0000 </r>
       <r>    -2.3967     0.0000     4.0000 </r>
       <r>    -2.2995     0.0000     4.0000 </r>
       <r>    -2.2022     0.0000     4.0000 </r>
       <r>    -2.1050     0.0000     4.0000 </r>
       <r>    -2.0078     0.0000     4.0000 </r>
       <r>    -1.9105     0.0000     4.0000 </r>
       <r>    -1.8133     0.0000     4.0000 </r>
       <r>    -1.7160     0.0000     4.0000 </r>
       <r>    -1.6188     0.0000     4.0000 </r>
       <r>    -1.5216     0.0005     4.0001 </r>
       <r>    -1.4243     0.0032     4.0004 </r>
       <r>    -1.3271     0.0224     4.0025 </r>
       <r>    -1.2298     0.1540     4.0175 </r>
       <r>    -1.1326     0.9597     4.1108 </r>
       <r>    -1.0354     3.6493     4.4657 </r>
       <r>    -0.9381     4.0452     4.8590 </r>
       <r>    -0.8409     1.2138     4.9771 </r>
       <r>    -0.7437     0.2014     4.9967 </r>
       <r>    -0.6464     0.0295     4.9995 </r>
       <r>    -0.5492     0.0000     5.0000 </r>
       <r>    -0.4519     0.0012     5.0001 </r>
       <r>    -0.3547     0.0071     5.0008 </r>
       <r>    -0.2575     0.0520     5.0059 </r>
       <r>    -0.1602     0.3480     5.0397 </r>
       <r>    -0.0630     1.9402     5.2284 </r>
       <r>     0.0343     5.2210     5.7360 </r>
       <r>     0.1315     5.8783     6.3076 </r>
       <r>     0.2287     5.9916     6.8903 </r>
       <r>     0.3260     5.6099     7.4358 </r>
       <r>     0.4232     6.8329     8.1017 </r>
       <r>     0.5204     8.8155     8.9589 </r>
       <r>     0.6177     9.6867     9.9015 </r>
       <r>     0.7149     7.5986    10.6404 </r>
       <r>     0.8122     5.0458    11.1316 </r>
       <r>     0.9094     5.6973    11.6873 </r>
       <r>     1.0066     6.1132    12.2826 </r>
       <r>     1.1039     9.2110    13.1798 </r>
       <r>     1.2011    13.2941    14.4725 </r>
       <r>     1.2984    11.3010    15.5731 </r>
       <r>     1.3956     3.6494    15.9279 </r>
       <r>     1.4928     0.6226    15.9896 </r>
       <r>     1.5901     0.0828    15.9986 </r>
       <r>     1.6873     0.0000    16.0000 </r>
       <r>     1.7845     0.0000    16.0000 </r>
       <r>     1.8818     0.0000    16.0000 </r>
       <r>     1.9790     0.0000    16.0000 </r>
       <r>     2.0763     0.0000    16.0000 </r>
       <r>     2.1735     0.0000    16.0000 </r>
       <r>     2.2707     0.0000    16.0000 </r>
       <r>     2.3680     0.0000    16.0000 </r>
       <r>     2.4652     0.0000    16.0000 </r>
       <r>     2.5625     0.0000    16.0000 </r>
      </set>
      <set comment="spin 2">
       <r>   -26.6091     0.0000     0.0000 </r>
       <r>   -26.5118     0.0000     0.0000 </r>
       <r>   -26.4146     0.0000     0.0000 </r>
       <r>   -26.3174     0.0000     0.0000 </r>
       <r>   -26.2201     0.0000     0.0000 </r>
       <r>   -26.1229     0.0000     0.0000 </r>
       <r>   -26.0256     0.0000     0.0000 </r>
       <r>   -25.9284     0.0000     0.0000 </r>
       <r>   -25.8312     0.0000     0.0000 </r>
       <r>   -25.7339     0.0012     0.0001 </r>
       <r>   -25.6367     0.0075     0.0008 </r>
       <r>   -25.5395     0.0519     0.0059 </r>
       <r>   -25.4422     0.3490     0.0398 </r>
       <r>   -25.3450     1.9028     0.2249 </r>
       <r>   -25.2477     4.5756     0.6698 </r>
       <r>   -25.1505     2.7186     0.9341 </r>
       <r>   -25.0533     0.5747     0.9900 </r>
       <r>   -24.9560     0.0879     0.9986 </r>
       <r>   -24.8588     0.0000     1.0000 </r>
       <r>   -24.7615     0.0000     1.0000 </r>
       <r>   -24.6643     0.0000     1.0000 </r>
       <r>   -24.5671     0.0000     1.0000 </r>
       <r>   -24.4698     0.0000     1.0000 </r>
       <r>   -24.3726     0.0000     1.0000 </r>
       <r>   -24.2754     0.0000     1.0000 </r>
       <r>   -24.1781     0.0000     1.0000 </r>
       <r>   -24.0809     0.0000     1.0000 </r>
       <r>   -23.9836     0.0000     1.0000 </r>
       <r>   -23.8864     0.0000     1.0000 </r>
       <r>   -23.7892     0.0000     1.0000 </r>
       <r>   -23.6919     0.0000     1.0000 </r>
       <r>   -23.5947     0.0000     1.0000 </r>
       <r>   -23.4974     0.0000     1.0000 </r>
       <r>   -23.4002     0.0000     1.0000 </r>
       <r>   -23.3030     0.0000     1.0000 </r>
       <r>   -23.2057     0.0000     1.0000 </r>
       <r>   -23.1085     0.0000     1.0000 </r>
       <r>   -23.0113     0.0000     1.0000 </r>
       <r>   -22.9140     0.0000     1.0000 </r>
       <r>   -22.8168     0.0000     1.0000 </r>
       <r>   -22.7195     0.0000     1.0000 </r>
       <r>   -22.6223     0.0000     1.0000 </r>
       <r>   -22.5251     0.0000     1.0000 </r>
       <r>   -22.4278     0.0000     1.0000 </r>
       <r>   -22.3306     0.0000     1.0000 </r>
       <r>   -22.2333     0.0000     1.0000 </r>
       <r>   -22.1361     0.0000     1.0000 </r>
       <r>   -22.0389     0.0000     1.0000 </r>
       <r>   -21.9416     0.0000     1.0000 </r>
       <r>   -21.8444     0.0000     1.0000 </r>
       <r>   -21.7472     0.0000     1.0000 </r>
       <r>   -21.6499     0.0000     1.0000 </r>
       <r>   -21.5527     0.0000     1.0000 </r>
       <r>   -21.4554     0.0000     1.0000 </r>
       <r>   -21.3582     0.0000     1.0000 </r>
       <r>   -21.2610     0.0000     1.0000 </r>
       <r>   -21.1637     0.0000     1.0000 </r>
       <r>   -21.0665     0.0000     1.0000 </r>
       <r>   -20.9692     0.0000     1.0000 </r>
       <r>   -20.8720     0.0000     1.0000 </r>
       <r>   -20.7748     0.0000     1.0000 </r>
       <r>   -20.6775     0.0000     1.0000 </r>
       <r>   -20.5803     0.0000     1.0000 </r>
       <r>   -20.4831     0.0000     1.0000 </r>
       <r>   -20.3858     0.0000     1.0000 </r>
       <r>   -20.2886     0.0000     1.0000 </r>
       <r>   -20.1913     0.0000     1.0000 </r>
       <r>   -20.0941     0.0000     1.0000 </r>
       <r>   -19.9969     0.0000     1.0000 </r>
       <r>   -19.8996     0.0000     1.0000 </r>
       <r>   -19.8024     0.0000     1.0000 </r>
       <r>   -19.7051     0.0000     1.0000 </r>
       <r>   -19.6079     0.0000     1.0000 </r>
       <r>   -19.5107     0.0000     1.0000 </r>
       <r>   -19.4134     0.0000     1.0000 </r>
       <r>   -19.3162     0.0000     1.0000 </r>
       <r>   -19.2190     0.0000     1.0000 </r>
       <r>   -19.1217     0.0000     1.0000 </r>
       <r>   -19.0245     0.0000     1.0000 </r>
       <r>   -18.9272     0.0000     1.0000 </r>
       <r>   -18.8300     0.0000     1.0000 </r>
       <r>   -18.7328     0.0000     1.0000 </r>
       <r>   -18.6355     0.0000     1.0000 </r>
       <r>   -18.5383     0.0000     1.0000 </r>
       <r>   -18.4410     0.0000     1.0000 </r>
       <r>   -18.3438     0.0000     1.0000 </r>
       <r>   -18.2466     0.0000     1.0000 </r>
       <r>   -18.1493     0.0000     1.0000 </r>
[...]
        <r>    -2.5912     0.0000     0.0000     0.0000     0.0000     0.0000     0.0000     0.0000     0.0000     0.0000 </r>
        <r>    -2.4939     0.0000     0.0000     0.0000     0.0000     0.0000     0.0000     0.0000     0.0000     0.0000 </r>
        <r>    -2.3967     0.0000     0.0000     0.0000     0.0000     0.0000     0.0000     0.0000     0.0000     0.0000 </r>
        <r>    -2.2995     0.0000     0.0000     0.0000     0.0000     0.0000     0.0000     0.0000     0.0000     0.0000 </r>
        <r>    -2.2022     0.0000     0.0000     0.0000     0.0000     0.0000     0.0000     0.0000     0.0000     0.0000 </r>
        <r>    -2.1050     0.0000     0.0000     0.0000     0.0000     0.0000     0.0000     0.0000     0.0000     0.0000 </r>
        <r>    -2.0078     0.0000     0.0000     0.0000     0.0000     0.0000     0.0000     0.0000     0.0000     0.0000 </r>
        <r>    -1.9105     0.0000     0.0000     0.0000     0.0000     0.0000     0.0000     0.0000     0.0000     0.0000 </r>
        <r>    -1.8133     0.0000     0.0000     0.0000     0.0000     0.0000     0.0000     0.0000     0.0000     0.0000 </r>
        <r>    -1.7160     0.0000     0.0000     0.0000     0.0000     0.0000     0.0000     0.0000     0.0000     0.0000 </r>
        <r>    -1.6188     0.0000     0.0000     0.0000     0.0000     0.0000     0.0000     0.0000     0.0000     0.0000 </r>
        <r>    -1.5216     0.0000     0.0000     0.0000     0.0000     0.0000     0.0000     0.0000     0.0000     0.0000 </r>
        <r>    -1.4243     0.0001     0.0000     0.0001     0.0000     0.0000     0.0000     0.0000     0.0000     0.0000 </r>
        <r>    -1.3271     0.0006     0.0000     0.0008     0.0000     0.0000     0.0000     0.0000     0.0000     0.0000 </r>
        <r>    -1.2298     0.0040     0.0001     0.0052     0.0000     0.0000     0.0000     0.0000     0.0000     0.0000 </r>
        <r>    -1.1326     0.0247     0.0008     0.0327     0.0000     0.0000     0.0000     0.0000     0.0000     0.0000 </r>
        <r>    -1.0354     0.0938     0.0030     0.1242     0.0000     0.0000     0.0000     0.0000     0.0000     0.0000 </r>
        <r>    -0.9381     0.1040     0.0033     0.1377     0.0000     0.0000     0.0000     0.0000     0.0000     0.0000 </r>
        <r>    -0.8409     0.0312     0.0010     0.0413     0.0000     0.0000     0.0000     0.0000     0.0000     0.0000 </r>
        <r>    -0.7437     0.0052     0.0002     0.0069     0.0000     0.0000     0.0000     0.0000     0.0000     0.0000 </r>
        <r>    -0.6464     0.0008     0.0000     0.0010     0.0000     0.0000     0.0000     0.0000     0.0000     0.0000 </r>
        <r>    -0.5492     0.0000     0.0000     0.0000     0.0000     0.0000     0.0000     0.0000     0.0000     0.0000 </r>
        <r>    -0.4519     0.0000     0.0000     0.0000     0.0000     0.0000     0.0000     0.0000     0.0000     0.0000 </r>
        <r>    -0.3547     0.0000     0.0000     0.0000     0.0000     0.0000     0.0000     0.0000     0.0000     0.0000 </r>
        <r>    -0.2575     0.0001     0.0000     0.0000     0.0000     0.0000     0.0000     0.0000     0.0000     0.0000 </r>
        <r>    -0.1602     0.0004     0.0000     0.0002     0.0000     0.0000     0.0000     0.0000     0.0000     0.0000 </r>
        <r>    -0.0630     0.0024     0.0003     0.0012     0.0000     0.0000     0.0000     0.0000     0.0000     0.0000 </r>
        <r>     0.0343     0.0061     0.0007     0.0031     0.0000     0.0000     0.0000     0.0000     0.0000     0.0000 </r>
        <r>     0.1315     0.0055     0.0010     0.0030     0.0000     0.0000     0.0000     0.0000     0.0000     0.0000 </r>
        <r>     0.2287     0.0056     0.0019     0.0072     0.0000     0.0000     0.0000     0.0000     0.0000     0.0000 </r>
        <r>     0.3260     0.0106     0.0070     0.0271     0.0000     0.0000     0.0000     0.0000     0.0000     0.0000 </r>
        <r>     0.4232     0.0128     0.0386     0.0369     0.0000     0.0000     0.0000     0.0000     0.0000     0.0000 </r>
        <r>     0.5204     0.0073     0.1391     0.0228     0.0001     0.0000     0.0000     0.0000     0.0000     0.0000 </r>
        <r>     0.6177     0.0079     0.1882     0.0177     0.0006     0.0000     0.0000     0.0000     0.0000     0.0000 </r>
        <r>     0.7149     0.0119     0.0762     0.0238     0.0043     0.0000     0.0000     0.0000     0.0000     0.0000 </r>
        <r>     0.8122     0.0068     0.0144     0.0137     0.0243     0.0000     0.0000     0.0000     0.0000     0.0000 </r>
        <r>     0.9094     0.0017     0.0021     0.0029     0.0643     0.0000     0.0000     0.0000     0.0000     0.0000 </r>
        <r>     1.0066     0.0019     0.0004     0.0009     0.0428     0.0000     0.0000     0.0000     0.0000     0.0000 </r>
        <r>     1.1039     0.0073     0.0021     0.0024     0.0095     0.0000     0.0000     0.0000     0.0000     0.0000 </r>
        <r>     1.2011     0.0135     0.0078     0.0081     0.0015     0.0000     0.0000     0.0000     0.0000     0.0000 </r>
        <r>     1.2984     0.0070     0.0097     0.0084     0.0000     0.0000     0.0000     0.0000     0.0000     0.0000 </r>
        <r>     1.3956     0.0015     0.0032     0.0025     0.0000     0.0000     0.0000     0.0000     0.0000     0.0000 </r>
        <r>     1.4928     0.0002     0.0006     0.0004     0.0000     0.0000     0.0000     0.0000     0.0000     0.0000 </r>
        <r>     1.5901     0.0000     0.0001     0.0001     0.0000     0.0000     0.0000     0.0000     0.0000     0.0000 </r>
        <r>     1.6873     0.0000     0.0000     0.0000     0.0000     0.0000     0.0000     0.0000     0.0000     0.0000 </r>
        <r>     1.7845     0.0000     0.0000     0.0000     0.0000     0.0000     0.0000     0.0000     0.0000     0.0000 </r>
        <r>     1.8818     0.0000     0.0000     0.0000     0.0000     0.0000     0.0000     0.0000     0.0000     0.0000 </r>
        <r>     1.9790     0.0000     0.0000     0.0000     0.0000     0.0000     0.0000     0.0000     0.0000     0.0000 </r>
        <r>     2.0763     0.0000     0.0000     0.0000     0.0000     0.0000     0.0000     0.0000     0.0000     0.0000 </r>
        <r>     2.1735     0.0000     0.0000     0.0000     0.0000     0.0000     0.0000     0.0000     0.0000     0.0000 </r>
        <r>     2.2707     0.0000     0.0000     0.0000     0.0000     0.0000     0.0000     0.0000     0.0000     0.0000 </r>
        <r>     2.3680     0.0000     0.0000     0.0000     0.0000     0.0000     0.0000     0.0000     0.0000     0.0000 </r>
        <r>     2.4652     0.0000     0.0000     0.0000     0.0000     0.0000     0.0000     0.0000     0.0000     0.0000 </r>
        <r>     2.5625     0.0000     0.0000     0.0000     0.0000     0.0000     0.0000     0.0000     0.0000     0.0000 </r>
       </set>
      </set>
     </set>
    </array>
   </partial>
  </dos>
  <projected>
   <eigenvalues>
    <array>
     <dimension dim="1">band</dimension>
     <dimension dim="2">kpoint</dimension>
     <dimension dim="3">spin</dimension>
     <field>eigene</field>
     <field>occ</field>
     <set>
      <set comment="spin 1">
       <set comment="kpoint 1">
        <r>  -25.2831    1.0000 </r>
        <r>  -13.0852    1.0000 </r>
        <r>   -9.2428    1.0000 </r>
        <r>   -7.1833    1.0000 </r>
        <r>   -1.0285    0.0000 </r>
        <r>    0.0013    0.0000 </r>
        <r>    0.1601    0.0000 </r>
        <r>    0.3406    0.0000 </r>
        <r>    0.4920    0.0000 </r>
        <r>    0.5608    0.0000 </r>
        <r>    0.6816    0.0000 </r>
        <r>    0.8819    0.0000 </r>
        <r>    1.0542    0.0000 </r>
        <r>    1.1487    0.0000 </r>
        <r>    1.2103    0.0000 </r>
        <r>    1.2365    0.0000 </r>
       </set>
      </set>
      <set comment="spin 2">
       <set comment="kpoint 1">
        <r>  -25.2831    1.0000 </r>
        <r>  -13.0852    1.0000 </r>
        <r>   -9.2428    1.0000 </r>
        <r>   -7.1833    1.0000 </r>
        <r>   -1.0285    0.0000 </r>
        <r>    0.0013    0.0000 </r>
        <r>    0.1601    0.0000 </r>
        <r>    0.3406    0.0000 </r>
        <r>    0.4920    0.0000 </r>
        <r>    0.5608    0.0000 </r>
        <r>    0.6816    0.0000 </r>
        <r>    0.8819    0.0000 </r>
        <r>    1.0542    0.0000 </r>
        <r>    1.1487    0.0000 </r>
        <r>    1.2093    0.0000 </r>
        <r>    1.2209    0.0000 </r>
       </set>
      </set>
     </set>
    </array>
   </eigenvalues>
   <array>
    <dimension dim="1">ion</dimension>
    <dimension dim="2">band</dimension>
    <dimension dim="3">kpoint</dimension>
    <dimension dim="4">spin</dimension>
    <field>    s</field>
    <field>   py</field>
    <field>   pz</field>
    <field>   px</field>
    <field>  dxy</field>
    <field>  dyz</field>
    <field>  dz2</field>
    <field>  dxz</field>
    <field>x2-y2</field>
    <set>
     <set comment="spin1">
      <set comment="kpoint 1">
       <set comment="band 1">
        <r>  0.0973  0.0173  0.0034  0.0000  0.0000  0.0000  0.0000  0.0000  0.0000 </r>
        <r>  0.0973  0.0113  0.0093  0.0000  0.0000  0.0000  0.0000  0.0000  0.0000 </r>
        <r>  0.7026  0.0010  0.0378  0.0000  0.0000  0.0000  0.0000  0.0000  0.0000 </r>
       </set>
       <set comment="band 2">
        <r>  0.1663  0.0092  0.0100  0.0000  0.0000  0.0000  0.0000  0.0000  0.0000 </r>
        <r>  0.1663  0.0035  0.0156  0.0000  0.0000  0.0000  0.0000  0.0000  0.0000 </r>
        <r>  0.0000  0.5284  0.0139  0.0000  0.0000  0.0000  0.0000  0.0000  0.0000 </r>
       </set>
       <set comment="band 3">
        <r>  0.0496  0.0064  0.0019  0.0000  0.0000  0.0000  0.0000  0.0000  0.0000 </r>
        <r>  0.0496  0.0080  0.0003  0.0000  0.0000  0.0000  0.0000  0.0000  0.0000 </r>
        <r>  0.0805  0.0142  0.5383  0.0000  0.0000  0.0000  0.0000  0.0000  0.0000 </r>
       </set>
       <set comment="band 4">
        <r>  0.0000  0.0000  0.0000  0.0119  0.0000  0.0000  0.0000  0.0000  0.0000 </r>
        <r>  0.0000  0.0000  0.0000  0.0119  0.0000  0.0000  0.0000  0.0000  0.0000 </r>
        <r>  0.0000  0.0000  0.0000  0.6668  0.0000  0.0000  0.0000  0.0000  0.0000 </r>
       </set>
       <set comment="band 5">
        <r>  0.0043  0.0095  0.0013  0.0000  0.0000  0.0000  0.0000  0.0000  0.0000 </r>
        <r>  0.0043  0.0066  0.0043  0.0000  0.0000  0.0000  0.0000  0.0000  0.0000 </r>
        <r>  0.0257  0.0008  0.0340  0.0000  0.0000  0.0000  0.0000  0.0000  0.0000 </r>
       </set>
       <set comment="band 6">
        <r>  0.0003  0.0004  0.0001  0.0000  0.0000  0.0000  0.0000  0.0000  0.0000 </r>
        <r>  0.0003  0.0002  0.0001  0.0000  0.0000  0.0000  0.0000  0.0000  0.0000 </r>
        <r>  0.0012  0.0001  0.0006  0.0000  0.0000  0.0000  0.0000  0.0000  0.0000 </r>
       </set>
       <set comment="band 7">
        <r>  0.0002  0.0001  0.0000  0.0000  0.0000  0.0000  0.0000  0.0000  0.0000 </r>
        <r>  0.0001  0.0000  0.0000  0.0000  0.0000  0.0000  0.0000  0.0000  0.0000 </r>
        <r>  0.0006  0.0002  0.0001  0.0000  0.0000  0.0000  0.0000  0.0000  0.0000 </r>
       </set>
       <set comment="band 8">
        <r>  0.0007  0.0015  0.0002  0.0000  0.0000  0.0000  0.0000  0.0000  0.0000 </r>
        <r>  0.0008  0.0011  0.0008  0.0000  0.0000  0.0000  0.0000  0.0000  0.0000 </r>
        <r>  0.0027  0.0001  0.0077  0.0000  0.0000  0.0000  0.0000  0.0000  0.0000 </r>
       </set>
       <set comment="band 9">
        <r>  0.0006  0.0013  0.0006  0.0000  0.0000  0.0000  0.0000  0.0000  0.0000 </r>
        <r>  0.0001  0.0006  0.0015  0.0000  0.0000  0.0000  0.0000  0.0000  0.0000 </r>
        <r>  0.0004  0.0122  0.0023  0.0000  0.0000  0.0000  0.0000  0.0000  0.0000 </r>
       </set>
       <set comment="band 10">
        <r>  0.0003  0.0030  0.0018  0.0000  0.0000  0.0000  0.0000  0.0000  0.0000 </r>
        <r>  0.0012  0.0017  0.0030  0.0000  0.0000  0.0000  0.0000  0.0000  0.0000 </r>
        <r>  0.0004  0.0329  0.0000  0.0000  0.0000  0.0000  0.0000  0.0000  0.0000 </r>
       </set>
       <set comment="band 11">
        <r>  0.0006  0.0012  0.0002  0.0000  0.0000  0.0000  0.0000  0.0000  0.0000 </r>
        <r>  0.0008  0.0007  0.0006  0.0000  0.0000  0.0000  0.0000  0.0000  0.0000 </r>
        <r>  0.0024  0.0002  0.0048  0.0000  0.0000  0.0000  0.0000  0.0000  0.0000 </r>
       </set>
       <set comment="band 12">
        <r>  0.0000  0.0000  0.0000  0.0000  0.0000  0.0000  0.0000  0.0000  0.0000 </r>
        <r>  0.0000  0.0000  0.0000  0.0000  0.0000  0.0000  0.0000  0.0000  0.0000 </r>
        <r>  0.0000  0.0000  0.0000  0.0144  0.0000  0.0000  0.0000  0.0000  0.0000 </r>
       </set>
       <set comment="band 13">
        <r>  0.0004  0.0001  0.0000  0.0000  0.0000  0.0000  0.0000  0.0000  0.0000 </r>
        <r>  0.0002  0.0001  0.0000  0.0000  0.0000  0.0000  0.0000  0.0000  0.0000 </r>
        <r>  0.0002  0.0000  0.0000  0.0000  0.0000  0.0000  0.0000  0.0000  0.0000 </r>
       </set>
       <set comment="band 14">
        <r>  0.0007  0.0004  0.0000  0.0000  0.0000  0.0000  0.0000  0.0000  0.0000 </r>
        <r>  0.0004  0.0001  0.0000  0.0000  0.0000  0.0000  0.0000  0.0000  0.0000 </r>
        <r>  0.0026  0.0001  0.0003  0.0000  0.0000  0.0000  0.0000  0.0000  0.0000 </r>
       </set>
       <set comment="band 15">
        <r>  0.0000  0.0000  0.0000  0.0000  0.0000  0.0000  0.0000  0.0000  0.0000 </r>
        <r>  0.0000  0.0001  0.0001  0.0000  0.0000  0.0000  0.0000  0.0000  0.0000 </r>
        <r>  0.0001  0.0001  0.0018  0.0000  0.0000  0.0000  0.0000  0.0000  0.0000 </r>
       </set>
       <set comment="band 16">
        <r>  0.0000  0.0001  0.0001  0.0000  0.0000  0.0000  0.0000  0.0000  0.0000 </r>
        <r>  0.0002  0.0001  0.0002  0.0000  0.0000  0.0000  0.0000  0.0000  0.0000 </r>
        <r>  0.0002  0.0015  0.0001  0.0000  0.0000  0.0000  0.0000  0.0000  0.0000 </r>
       </set>
      </set>
     </set>
     <set comment="spin2">
      <set comment="kpoint 1">
       <set comment="band 1">
        <r>  0.0973  0.0173  0.0034  0.0000  0.0000  0.0000  0.0000  0.0000  0.0000 </r>
        <r>  0.0973  0.0113  0.0093  0.0000  0.0000  0.0000  0.0000  0.0000  0.0000 </r>
        <r>  0.7026  0.0010  0.0378  0.0000  0.0000  0.0000  0.0000  0.0000  0.0000 </r>
       </set>
       <set comment="band 2">
        <r>  0.1663  0.0092  0.0100  0.0000  0.0000  0.0000  0.0000  0.0000  0.0000 </r>
        <r>  0.1663  0.0035  0.0156  0.0000  0.0000  0.0000  0.0000  0.0000  0.0000 </r>
        <r>  0.0000  0.5284  0.0139  0.0000  0.0000  0.0000  0.0000  0.0000  0.0000 </r>
       </set>
       <set comment="band 3">
        <r>  0.0496  0.0064  0.0019  0.0000  0.0000  0.0000  0.0000  0.0000  0.0000 </r>
        <r>  0.0496  0.0080  0.0003  0.0000  0.0000  0.0000  0.0000  0.0000  0.0000 </r>
        <r>  0.0805  0.0142  0.5383  0.0000  0.0000  0.0000  0.0000  0.0000  0.0000 </r>
       </set>
       <set comment="band 4">
        <r>  0.0000  0.0000  0.0000  0.0119  0.0000  0.0000  0.0000  0.0000  0.0000 </r>
        <r>  0.0000  0.0000  0.0000  0.0119  0.0000  0.0000  0.0000  0.0000  0.0000 </r>
        <r>  0.0000  0.0000  0.0000  0.6668  0.0000  0.0000  0.0000  0.0000  0.0000 </r>
       </set>
       <set comment="band 5">
        <r>  0.0043  0.0095  0.0013  0.0000  0.0000  0.0000  0.0000  0.0000  0.0000 </r>
        <r>  0.0043  0.0066  0.0043  0.0000  0.0000  0.0000  0.0000  0.0000  0.0000 </r>
        <r>  0.0257  0.0008  0.0340  0.0000  0.0000  0.0000  0.0000  0.0000  0.0000 </r>
       </set>
       <set comment="band 6">
        <r>  0.0003  0.0004  0.0001  0.0000  0.0000  0.0000  0.0000  0.0000  0.0000 </r>
        <r>  0.0003  0.0002  0.0001  0.0000  0.0000  0.0000  0.0000  0.0000  0.0000 </r>
        <r>  0.0012  0.0001  0.0006  0.0000  0.0000  0.0000  0.0000  0.0000  0.0000 </r>
       </set>
       <set comment="band 7">
        <r>  0.0002  0.0001  0.0000  0.0000  0.0000  0.0000  0.0000  0.0000  0.0000 </r>
        <r>  0.0001  0.0000  0.0000  0.0000  0.0000  0.0000  0.0000  0.0000  0.0000 </r>
        <r>  0.0006  0.0002  0.0001  0.0000  0.0000  0.0000  0.0000  0.0000  0.0000 </r>
       </set>
       <set comment="band 8">
        <r>  0.0007  0.0015  0.0002  0.0000  0.0000  0.0000  0.0000  0.0000  0.0000 </r>
        <r>  0.0008  0.0011  0.0008  0.0000  0.0000  0.0000  0.0000  0.0000  0.0000 </r>
        <r>  0.0027  0.0001  0.0077  0.0000  0.0000  0.0000  0.0000  0.0000  0.0000 </r>
       </set>
       <set comment="band 9">
        <r>  0.0006  0.0013  0.0006  0.0000  0.0000  0.0000  0.0000  0.0000  0.0000 </r>
        <r>  0.0001  0.0006  0.0015  0.0000  0.0000  0.0000  0.0000  0.0000  0.0000 </r>
        <r>  0.0004  0.0122  0.0023  0.0000  0.0000  0.0000  0.0000  0.0000  0.0000 </r>
       </set>
       <set comment="band 10">
        <r>  0.0003  0.0030  0.0018  0.0000  0.0000  0.0000  0.0000  0.0000  0.0000 </r>
        <r>  0.0012  0.0017  0.0030  0.0000  0.0000  0.0000  0.0000  0.0000  0.0000 </r>
        <r>  0.0004  0.0329  0.0000  0.0000  0.0000  0.0000  0.0000  0.0000  0.0000 </r>
       </set>
       <set comment="band 11">
        <r>  0.0006  0.0012  0.0002  0.0000  0.0000  0.0000  0.0000  0.0000  0.0000 </r>
        <r>  0.0008  0.0007  0.0006  0.0000  0.0000  0.0000  0.0000  0.0000  0.0000 </r>
        <r>  0.0024  0.0002  0.0048  0.0000  0.0000  0.0000  0.0000  0.0000  0.0000 </r>
       </set>
       <set comment="band 12">
        <r>  0.0000  0.0000  0.0000  0.0000  0.0000  0.0000  0.0000  0.0000  0.0000 </r>
        <r>  0.0000  0.0000  0.0000  0.0000  0.0000  0.0000  0.0000  0.0000  0.0000 </r>
        <r>  0.0000  0.0000  0.0000  0.0144  0.0000  0.0000  0.0000  0.0000  0.0000 </r>
       </set>
       <set comment="band 13">
        <r>  0.0004  0.0001  0.0000  0.0000  0.0000  0.0000  0.0000  0.0000  0.0000 </r>
        <r>  0.0002  0.0001  0.0000  0.0000  0.0000  0.0000  0.0000  0.0000  0.0000 </r>
        <r>  0.0002  0.0000  0.0000  0.0000  0.0000  0.0000  0.0000  0.0000  0.0000 </r>
       </set>
       <set comment="band 14">
        <r>  0.0007  0.0004  0.0000  0.0000  0.0000  0.0000  0.0000  0.0000  0.0000 </r>
        <r>  0.0004  0.0001  0.0000  0.0000  0.0000  0.0000  0.0000  0.0000  0.0000 </r>
        <r>  0.0026  0.0002  0.0003  0.0000  0.0000  0.0000  0.0000  0.0000  0.0000 </r>
       </set>
       <set comment="band 15">
        <r>  0.0000  0.0000  0.0000  0.0000  0.0000  0.0000  0.0000  0.0000  0.0000 </r>
        <r>  0.0000  0.0001  0.0001  0.0000  0.0000  0.0000  0.0000  0.0000  0.0000 </r>
        <r>  0.0001  0.0003  0.0017  0.0000  0.0000  0.0000  0.0000  0.0000  0.0000 </r>
       </set>
       <set comment="band 16">
        <r>  0.0000  0.0002  0.0001  0.0000  0.0000  0.0000  0.0000  0.0000  0.0000 </r>
        <r>  0.0001  0.0001  0.0001  0.0000  0.0000  0.0000  0.0000  0.0000  0.0000 </r>
        <r>  0.0002  0.0019  0.0002  0.0000  0.0000  0.0000  0.0000  0.0000  0.0000 </r>
       </set>
      </set>
     </set>
    </set>
   </array>
  </projected>
 </calculation>
 <structure name="finalpos" >
  <crystal>
   <varray name="basis" >
    <v>      11.10380000       0.00000000       0.00000000 </v>
    <v>       0.00000000      11.20020000       0.00000000 </v>
    <v>       0.00000000       0.00000000      32.43460000 </v>
   </varray>
   <i name="volume">   4033.72191804 </i>
   <varray name="rec_basis" >
    <v>       0.09005926       0.00000000       0.00000000 </v>
    <v>       0.00000000       0.08928412       0.00000000 </v>
    <v>       0.00000000       0.00000000       0.03083127 </v>
   </varray>
  </crystal>
  <varray name="positions" >
   <v>       0.48229000       0.65259008       0.50893763 </v>
   <v>       0.48229000       0.78810663       0.50133044 </v>
   <v>       0.48229000       0.72886329       0.52323193 </v>
  </varray>
 </structure>
</modeling>
