 vasp.6.3.2 27Jun22 (build Sep  5 2022 18:50:32) complex                         
 executed on              LinuxNV date 2023.01.14  18:20:01
 running    4 mpi-ranks, with   20 threads/rank
 distrk:  each k-point on    4 cores,    1 groups
 distr:  one band on NCORE=   1 cores,    4 groups


--------------------------------------------------------------------------------------------------------


 INCAR:
   ISPIN = 2        (Spin polarised DFT)
   LORBIT = 11
   LREAL = .FALSE.       (Projection operators: automatic)
   ENCUT = 520        (Cut-off energy for plane wave basis set, in eV)
   PREC = Accurate   (Precision level: Normal or Accurate, set Accurate when perform structure lattice relaxation calculation)
   LWAVE = .TRUE.        (Write WAVECAR or not)
   LCHARG = .TRUE.        (Write CHGCAR or not)
   ADDGRID = .TRUE.        (Increase grid, helps GGA convergence)
   ALGO = Fast
   ISMEAR = -1            (Gaussian smearing, metals:1)
   SIGMA = 0.05         (Smearing value in eV, metals:0.2)
   NELM = 150           (Max electronic SCF steps)
   NELMIN = 6            (Min electronic SCF steps)
   EDIFF = 1E-06        (SCF energy convergence, in eV)
   NSW = 100          (Max ionic steps)
   IBRION = 2            (Algorithm: 0-MD, 1-Quasi-New, 2-CG)
   ISIF = 2            (Stress/relaxation: 2-Ions, 3-Shape/Ions/V, 4-Shape/Ions)
   EDIFFG = -1E-02        (Ionic convergence, eV/AA)

 POTCAR:    PAW_PBE H 15Jun2001                   
 -----------------------------------------------------------------------------
|                                                                             |
|           W    W    AA    RRRRR   N    N  II  N    N   GGGG   !!!           |
|           W    W   A  A   R    R  NN   N  II  NN   N  G    G  !!!           |
|           W    W  A    A  R    R  N N  N  II  N N  N  G       !!!           |
|           W WW W  AAAAAA  RRRRR   N  N N  II  N  N N  G  GGG   !            |
|           WW  WW  A    A  R   R   N   NN  II  N   NN  G    G                |
|           W    W  A    A  R    R  N    N  II  N    N   GGGG   !!!           |
|                                                                             |
|     You use a magnetic or noncollinear calculation, but did not specify     |
|     the initial magnetic moment with the MAGMOM tag. Note that a            |
|     default of 1 will be used for all atoms. This ferromagnetic setup       |
|     may break the symmetry of the crystal, in particular it may rule        |
|     out finding an antiferromagnetic solution. Thence, we recommend         |
|     setting the initial magnetic moment manually or verifying carefully     |
|     that this magnetic setup is desired.                                    |
|                                                                             |
 -----------------------------------------------------------------------------

 POTCAR:    PAW_PBE H 15Jun2001                   
   SHA256 =  030f79b5d3ab3cf0e668861823c8fb652ff669f3e15e46930bd03bfd63a607b6 H/POTCAR              
   COPYR  = (c) Copyright 15Jun2001 Georg Kresse                                                    
   COPYR  = This file is part of the software VASP. Any use, copying, and all other rights are regul
   COPYR  = If you do not have a valid VASP license, you may not use, copy or distribute this file. 
   VRHFIN =H: ultrasoft test                                                                        
   LEXCH  = PE                                                                                      
   EATOM  =    12.4884 eV,    0.9179 Ry                                                             
                                                                                                    
   TITEL  = PAW_PBE H 15Jun2001                                                                     
   LULTRA =        F    use ultrasoft PP ?                                                          
   IUNSCR =        0    unscreen: 0-lin 1-nonlin 2-no                                               
   RPACOR =    0.000    partial core radius                                                         
   POMASS =    1.000; ZVAL   =    1.000    mass and valenz                                          
   RCORE  =    1.100    outmost cutoff radius                                                       
   RWIGS  =    0.700; RWIGS  =    0.370    wigner-seitz radius (au A)                               
   ENMAX  =  250.000; ENMIN  =  200.000 eV                                                          
   RCLOC  =    0.701    cutoff for local pot                                                        
   LCOR   =        T    correct aug charges                                                         
   LPAW   =        T    paw PP                                                                      
   EAUG   =  400.000                                                                                
   RMAX   =    1.123    core radius for proj-oper                                                   
   RAUG   =    1.200    factor for augmentation sphere                                              
   RDEP   =    1.112    radius for radial grids                                                     
   RDEPT  =    0.926    core radius for aug-charge                                                  
                                                                                                    
   Atomic configuration                                                                             
    2 entries                                                                                       
     n  l   j            E        occ.                                                              
     1  0  0.50        -6.4927   1.0000                                                             
     2  1  0.50        -3.4015   0.0000                                                             
   Description                                                                                      
     l       E           TYP  RCUT    TYP  RCUT                                                     
     0     -6.4927494     23  1.100                                                                 
     0      6.8029130     23  1.100                                                                 
     1     -4.0817478     23  1.100                                                                 
  local pseudopotential read in
  atomic valenz-charges read in
  non local Contribution for L=            0  read in
    real space projection operators read in
  non local Contribution for L=            0  read in
    real space projection operators read in
  non local Contribution for L=            1  read in
    real space projection operators read in
    PAW grid and wavefunctions read in
 
   number of l-projection  operators is LMAX  =            3
   number of lm-projection operators is LMMAX =            5
 
  PAW_PBE H 15Jun2001                   :
 energy of atom  1       EATOM=  -12.4884
 kinetic energy error for atom=    0.0014 (will be added to EATOM!!)
 
 
 POSCAR: cif2pos.py
  positions in direct lattice
  No initial velocities read in
 exchange correlation table for  LEXCH =        8
   RHO(1)=    0.500       N(1)  =     2000
   RHO(2)=  100.500       N(2)  =     4000
 


--------------------------------------------------------------------------------------------------------


 ion  position               nearest neighbor table
   1  0.489  0.632  0.505-   2 0.74
   2  0.470  0.632  0.527-   1 0.74
 
  LATTYP: Found a simple orthorhombic cell.
 ALAT       =    11.1038000000
 B/A-ratio  =     1.0086817126
 C/A-ratio  =     2.9210360417
  
  Lattice vectors:
  
 A1 = (  11.1038000000,   0.0000000000,   0.0000000000)
 A2 = (   0.0000000000,  11.2002000000,   0.0000000000)
 A3 = (   0.0000000000,   0.0000000000,  32.4346000000)


Analysis of symmetry for initial positions (statically):
=====================================================================
 Subroutine PRICEL returns:
 Original cell was already a primitive cell.
 

 Routine SETGRP: Setting up the symmetry group for a 
 simple orthorhombic supercell.


 Subroutine GETGRP returns: Found  2 space group operations
 (whereof  1 operations were pure point group operations)
 out of a pool of  8 trial point group operations.


The static configuration has the point symmetry C_1 .
 The point group associated with its full space group is S_2 .


Analysis of symmetry for dynamics (positions and initial velocities):
=====================================================================
 Subroutine PRICEL returns:
 Original cell was already a primitive cell.
 

 Routine SETGRP: Setting up the symmetry group for a 
 simple orthorhombic supercell.


 Subroutine GETGRP returns: Found  2 space group operations
 (whereof  1 operations were pure point group operations)
 out of a pool of  8 trial point group operations.


The dynamic configuration has the point symmetry C_1 .
 The point group associated with its full space group is S_2 .


Analysis of structural, dynamic, and magnetic symmetry:
=====================================================================
 Subroutine PRICEL returns:
 Original cell was already a primitive cell.
 

 Routine SETGRP: Setting up the symmetry group for a 
 simple orthorhombic supercell.


 Subroutine GETGRP returns: Found  2 space group operations
 (whereof  1 operations were pure point group operations)
 out of a pool of  8 trial point group operations.


The overall configuration has the point symmetry C_1 .
 The point group associated with its full space group is S_2 .


 Subroutine INISYM returns: Found  2 space group operations
 (whereof  1 operations are pure point group operations),
 and found     1 'primitive' translations


----------------------------------------------------------------------------------------

                                     Primitive cell                                     

  volume of cell :    4033.7219

  direct lattice vectors                    reciprocal lattice vectors
    11.103800000  0.000000000  0.000000000     0.090059259  0.000000000  0.000000000
     0.000000000 11.200200000  0.000000000     0.000000000  0.089284120  0.000000000
     0.000000000  0.000000000 32.434600000     0.000000000  0.000000000  0.030831273

  length of vectors
    11.103800000 11.200200000 32.434600000     0.090059259  0.089284120  0.030831273

  position of ions in fractional coordinates (direct lattice)
     0.489080000  0.632490000  0.504920000
     0.469590000  0.632190000  0.526730000

  ion indices of the primitive-cell ions
   primitive index   ion index
                 1           1
                 2           2

----------------------------------------------------------------------------------------

 
 
 KPOINTS: K-Spacing Value to Generate K-Mesh: 0.03

Automatic generation of k-mesh.
 Grid dimensions read from file:
 generate k-points for:    1    1    1

 Generating k-lattice:

  Cartesian coordinates                     Fractional coordinates (reciprocal lattice)
     0.090059259  0.000000000  0.000000000     1.000000000  0.000000000  0.000000000
     0.000000000  0.089284120  0.000000000     0.000000000  1.000000000  0.000000000
     0.000000000  0.000000000  0.030831273     0.000000000  0.000000000  1.000000000

  Length of vectors
     0.090059259  0.089284120  0.030831273

  Shift w.r.t. Gamma in fractional coordinates (k-lattice)
     0.000000000  0.000000000  0.000000000

 
 Subroutine IBZKPT returns following result:
 ===========================================
 
 Found      1 irreducible k-points:
 
 Following reciprocal coordinates:
            Coordinates               Weight
  0.000000  0.000000  0.000000      1.000000
 
 Following cartesian coordinates:
            Coordinates               Weight
  0.000000  0.000000  0.000000      1.000000
 


--------------------------------------------------------------------------------------------------------




 Dimension of arrays:
   k-points           NKPTS =      1   k-points in BZ     NKDIM =      1   number of bands    NBANDS=      8
   number of dos      NEDOS =    301   number of ions     NIONS =      2
   non local maximal  LDIM  =      3   non local SUM 2l+1 LMDIM =      5
   total plane-waves  NPLWV = ******
   max r-space proj   IRMAX =      1   max aug-charges    IRDMAX=  17202
   dimension x,y,z NGX =    84 NGY =   84 NGZ =  250
   dimension x,y,z NGXF=   168 NGYF=  168 NGZF=  500
   support grid    NGXF=   336 NGYF=  336 NGZF= 1000
   ions per type =               2
   NGX,Y,Z   is equivalent  to a cutoff of  12.58, 12.47, 12.81 a.u.
   NGXF,Y,Z  is equivalent  to a cutoff of  25.15, 24.94, 25.63 a.u.

 SYSTEM =  unknown system                          
 POSCAR =  cif2pos.py                              

 Startparameter for this run:
   NWRITE =      2    write-flag & timer
   PREC   = accura    normal or accurate (medium, high low for compatibility)
   ISTART =      0    job   : 0-new  1-cont  2-samecut
   ICHARG =      2    charge: 1-file 2-atom 10-const
   ISPIN  =      2    spin polarized calculation?
   LNONCOLLINEAR =      F non collinear calculations
   LSORBIT =      F    spin-orbit coupling
   INIWAV =      1    electr: 0-lowe 1-rand  2-diag
   LASPH  =      F    aspherical Exc in radial PAW
 Electronic Relaxation 1
   ENCUT  =  520.0 eV  38.22 Ry    6.18 a.u.  20.65 20.82 60.31*2*pi/ulx,y,z
   ENINI  =  520.0     initial cutoff
   ENAUG  =  400.0 eV  augmentation charge cutoff
   NELM   =    150;   NELMIN=  6; NELMDL= -5     # of ELM steps 
   EDIFF  = 0.1E-05   stopping-criterion for ELM
   LREAL  =      F    real-space projection
   NLSPLINE    = F    spline interpolate recip. space projectors
   LCOMPAT=      F    compatible to vasp.4.4
   GGA_COMPAT  = T    GGA compatible to vasp.4.4-vasp.4.6
   LMAXPAW     = -100 max onsite density
   LMAXMIX     =    2 max onsite mixed and CHGCAR
   VOSKOWN=      0    Vosko Wilk Nusair interpolation
   ROPT   =    0.00000
 Ionic relaxation
   EDIFFG = -.1E-01   stopping-criterion for IOM
   NSW    =    100    number of steps for IOM
   NBLOCK =      1;   KBLOCK =    100    inner block; outer block 
   IBRION =      2    ionic relax: 0-MD 1-quasi-New 2-CG
   NFREE  =      1    steps in history (QN), initial steepest desc. (CG)
   ISIF   =      2    stress and relaxation
   IWAVPR =     11    prediction:  0-non 1-charg 2-wave 3-comb
   ISYM   =      2    0-nonsym 1-usesym 2-fastsym
   LCORR  =      T    Harris-Foulkes like correction to forces

   POTIM  = 0.5000    time-step for ionic-motion
   TEIN   =    0.0    initial temperature
   TEBEG  =    0.0;   TEEND  =   0.0 temperature during run
   SMASS  =  -3.00    Nose mass-parameter (am)
   estimated Nose-frequenzy (Omega)   =  0.10E-29 period in steps = 0.13E+47 mass=  -0.282E-26a.u.
   SCALEE = 1.0000    scale energy and forces
   NPACO  =    256;   APACO  = 10.0  distance and # of slots for P.C.
   PSTRESS=    0.0 pullay stress

  Mass of Ions in am
   POMASS =   1.00
  Ionic Valenz
   ZVAL   =   1.00
  Atomic Wigner-Seitz radii
   RWIGS  =  -1.00
  virtual crystal weights 
   VCA    =   1.00
   NELECT =       2.0000    total number of electrons
   NUPDOWN=      -1.0000    fix difference up-down

 DOS related values:
   EMIN   =  10.00;   EMAX   =-10.00  energy-range for DOS
   EFERMI =   0.00
   ISMEAR =    -1;   SIGMA  =   0.05  broadening in eV -4-tet -1-fermi 0-gaus

 Electronic relaxation 2 (details)
   IALGO  =     68    algorithm
   LDIAG  =      T    sub-space diagonalisation (order eigenvalues)
   LSUBROT=      F    optimize rotation matrix (better conditioning)
   TURBO    =      0    0=normal 1=particle mesh
   IRESTART =      0    0=no restart 2=restart with 2 vectors
   NREBOOT  =      0    no. of reboots
   NMIN     =      0    reboot dimension
   EREF     =   0.00    reference energy to select bands
   IMIX   =      4    mixing-type and parameters
     AMIX     =   0.40;   BMIX     =  1.00
     AMIX_MAG =   1.60;   BMIX_MAG =  1.00
     AMIN     =   0.10
     WC   =   100.;   INIMIX=   1;  MIXPRE=   1;  MAXMIX= -45

 Intra band minimization:
   WEIMIN = 0.0010     energy-eigenvalue tresh-hold
   EBREAK =  0.31E-07  absolut break condition
   DEPER  =   0.30     relativ break condition  

   TIME   =   0.40     timestep for ELM

  volume/ion in A,a.u.               =    2016.86     13610.45
  Fermi-wavevector in a.u.,A,eV,Ry     =   0.129573  0.244858  0.228432  0.016789
  Thomas-Fermi vector in A             =   0.767559
 
 Write flags
   LWAVE        =      T    write WAVECAR
   LDOWNSAMPLE  =      F    k-point downsampling of WAVECAR
   LCHARG       =      T    write CHGCAR
   LVTOT        =      F    write LOCPOT, total local potential
   LVHAR        =      F    write LOCPOT, Hartree potential only
   LELF         =      F    write electronic localiz. function (ELF)
   LORBIT       =     11    0 simple, 1 ext, 2 COOP (PROOUT), +10 PAW based schemes


 Dipole corrections
   LMONO  =      F    monopole corrections only (constant potential shift)
   LDIPOL =      F    correct potential (dipole corrections)
   IDIPOL =      0    1-x, 2-y, 3-z, 4-all directions 
   EPSILON=  1.0000000 bulk dielectric constant

 Exchange correlation treatment:
   GGA     =    --    GGA type
   LEXCH   =     8    internal setting for exchange type
   LIBXC   =     F    Libxc                    
   VOSKOWN =     0    Vosko Wilk Nusair interpolation
   LHFCALC =     F    Hartree Fock is set to
   LHFONE  =     F    Hartree Fock one center treatment
   AEXX    =    0.0000 exact exchange contribution

 Linear response parameters
   LEPSILON=     F    determine dielectric tensor
   LRPA    =     F    only Hartree local field effects (RPA)
   LNABLA  =     F    use nabla operator in PAW spheres
   LVEL    =     F    velocity operator in full k-point grid
   CSHIFT  =0.1000    complex shift for real part using Kramers Kronig
   OMEGAMAX=  -1.0    maximum frequency
   DEG_THRESHOLD= 0.2000000E-02 threshold for treating states as degnerate
   RTIME   =   -0.100 relaxation time in fs
  (WPLASMAI=    0.000 imaginary part of plasma frequency in eV, 0.658/RTIME)
   DFIELD  = 0.0000000 0.0000000 0.0000000 field for delta impulse in time
 
  Optional k-point grid parameters
   LKPOINTS_OPT  =     F    use optional k-point grid
   KPOINTS_OPT_MODE=     1    mode for optional k-point grid
 
 Orbital magnetization related:
   ORBITALMAG=     F  switch on orbital magnetization
   LCHIMAG   =     F  perturbation theory with respect to B field
   DQ        =  0.001000  dq finite difference perturbation B field
   LLRAUG    =     F  two centre corrections for induced B field



--------------------------------------------------------------------------------------------------------


 conjugate gradient relaxation of ions
 charge density and potential will be updated during run
 spin polarized calculation
 RMM-DIIS sequential band-by-band and
  variant of blocked Davidson during initial phase
 perform sub-space diagonalisation
    before iterative eigenvector-optimisation
 modified Broyden-mixing scheme, WC =      100.0
 initial mixing is a Kerker type mixing with AMIX =  0.4000 and BMIX =      1.0000
 Hartree-type preconditioning will be used
 using additional bands             7
 reciprocal scheme for non local part
 calculate Harris-corrections to forces 
   (improved forces if not selfconsistent)
 use gradient corrections 
 use of overlap-Matrix (Vanderbilt PP)
 Fermi-smearing in eV        SIGMA  =   0.05


--------------------------------------------------------------------------------------------------------


  energy-cutoff  :      520.00
  volume of cell :     4033.72
      direct lattice vectors                 reciprocal lattice vectors
    11.103800000  0.000000000  0.000000000     0.090059259  0.000000000  0.000000000
     0.000000000 11.200200000  0.000000000     0.000000000  0.089284120  0.000000000
     0.000000000  0.000000000 32.434600000     0.000000000  0.000000000  0.030831273

  length of vectors
    11.103800000 11.200200000 32.434600000     0.090059259  0.089284120  0.030831273


 
 k-points in units of 2pi/SCALE and weight: K-Spacing Value to Generate K-Mesh: 0.03
   0.00000000  0.00000000  0.00000000       1.000
 
 k-points in reciprocal lattice and weights: K-Spacing Value to Generate K-Mesh: 0.03
   0.00000000  0.00000000  0.00000000       1.000
 
 position of ions in fractional coordinates (direct lattice) 
   0.48908000  0.63249000  0.50492000
   0.46959000  0.63219000  0.52673000
 
 position of ions in cartesian coordinates  (Angst):
   5.43064650  7.08401450 16.37687823
   5.21423344  7.08065444 17.08427686
 


--------------------------------------------------------------------------------------------------------


 k-point   1 :   0.0000 0.0000 0.0000  plane waves:  108581

 maximum and minimum number of plane-waves per node :    108581   108581

 maximum number of plane-waves:    108581
 maximum index in each direction: 
   IXMAX=   20   IYMAX=   20   IZMAX=   60
   IXMIN=  -20   IYMIN=  -20   IZMIN=  -60


 serial   3D FFT for wavefunctions
 parallel 3D FFT for charge:
    minimum data exchange during FFTs selected (reduces bandwidth)


 total amount of memory used by VASP MPI-rank0   962526. kBytes
=======================================================================

   base      :      30000. kBytes
   nonl-proj :       7818. kBytes
   fftplans  :     521602. kBytes
   grid      :     396152. kBytes
   one-center:          4. kBytes
   wavefun   :       6950. kBytes
 
     INWAV:  cpu time      0.0027: real time      0.0003
 Broyden mixing: mesh for mixing (old mesh)
   NGX = 41   NGY = 41   NGZ =121
  (NGX  =168   NGY  =168   NGZ  =500)
  gives a total of 203401 points

 initial charge density was supplied:
 charge density of overlapping atoms calculated
 number of electron       2.0000000 magnetization       2.0000000
 keeping initial charge density in first step


--------------------------------------------------------------------------------------------------------


 Maximum index for augmentation-charges          4145 (set IRDMAX)


--------------------------------------------------------------------------------------------------------


 First call to EWALD:  gamma=   0.111
 Maximum number of real-space cells 4x 4x 2
 Maximum number of reciprocal cells 2x 2x 5

    FEWALD:  cpu time      0.1737: real time      0.0306


--------------------------------------- Iteration      1(   1)  ---------------------------------------


    POTLOK:  cpu time      0.2424: real time      0.2677
    SETDIJ:  cpu time      1.7098: real time      1.4344
     EDDAV:  cpu time      0.0943: real time      0.0807
       DOS:  cpu time      0.0004: real time      0.0004
    --------------------------------------------
      LOOP:  cpu time      2.0469: real time      1.7831

 eigenvalue-minimisations  :    40
 total energy-change (2. order) : 0.8056146E+01  (-0.1744130E+02)
 number of electron       2.0000000 magnetization       2.0000000
 augmentation part        2.0000000 magnetization       2.0000000

 Free energy of the ion-electron system (eV)
  ---------------------------------------------------
  alpha Z        PSCENC =         0.00241580
  Ewald energy   TEWEN  =        17.24738773
  -Hartree energ DENC   =       -26.52773826
  -exchange      EXHF   =         0.00000000
  -V(xc)+E(xc)   XCENC  =         5.15388534
  PAW double counting   =         3.58865974       -3.60540285
  entropy T*S    EENTRO =        -0.01141295
  eigenvalues    EBANDS =       -12.76558998
  atomic energy  EATOM  =        24.97394176
  Solvation  Ediel_sol  =         0.00000000
  ---------------------------------------------------
  free energy    TOTEN  =         8.05614634 eV

  energy without entropy =        8.06755929  energy(sigma->0) =        8.06185282


--------------------------------------------------------------------------------------------------------




--------------------------------------- Iteration      1(   2)  ---------------------------------------


     EDDAV:  cpu time      0.0454: real time      0.0454
       DOS:  cpu time      0.0003: real time      0.0003
    --------------------------------------------
      LOOP:  cpu time      0.0457: real time      0.0456

 eigenvalue-minimisations  :    40
 total energy-change (2. order) :-0.3780171E+01  (-0.3773955E+01)
 number of electron       2.0000000 magnetization       2.0000000
 augmentation part        2.0000000 magnetization       2.0000000

 Free energy of the ion-electron system (eV)
  ---------------------------------------------------
  alpha Z        PSCENC =         0.00241580
  Ewald energy   TEWEN  =        17.24738773
  -Hartree energ DENC   =       -26.52773826
  -exchange      EXHF   =         0.00000000
  -V(xc)+E(xc)   XCENC  =         5.15388534
  PAW double counting   =         3.58865974       -3.60540285
  entropy T*S    EENTRO =        -0.01944607
  eigenvalues    EBANDS =       -16.53772793
  atomic energy  EATOM  =        24.97394176
  Solvation  Ediel_sol  =         0.00000000
  ---------------------------------------------------
  free energy    TOTEN  =         4.27597528 eV

  energy without entropy =        4.29542134  energy(sigma->0) =        4.28569831


--------------------------------------------------------------------------------------------------------




--------------------------------------- Iteration      1(   3)  ---------------------------------------


     EDDAV:  cpu time      0.0581: real time      0.0579
       DOS:  cpu time      0.0003: real time      0.0003
    --------------------------------------------
      LOOP:  cpu time      0.0584: real time      0.0582

 eigenvalue-minimisations  :    56
 total energy-change (2. order) :-0.7509315E+00  (-0.7236556E+00)
 number of electron       2.0000000 magnetization       2.0000000
 augmentation part        2.0000000 magnetization       2.0000000

 Free energy of the ion-electron system (eV)
  ---------------------------------------------------
  alpha Z        PSCENC =         0.00241580
  Ewald energy   TEWEN  =        17.24738773
  -Hartree energ DENC   =       -26.52773826
  -exchange      EXHF   =         0.00000000
  -V(xc)+E(xc)   XCENC  =         5.15388534
  PAW double counting   =         3.58865974       -3.60540285
  entropy T*S    EENTRO =        -0.00007136
  eigenvalues    EBANDS =       -17.30803413
  atomic energy  EATOM  =        24.97394176
  Solvation  Ediel_sol  =         0.00000000
  ---------------------------------------------------
  free energy    TOTEN  =         3.52504378 eV

  energy without entropy =        3.52511514  energy(sigma->0) =        3.52507946


--------------------------------------------------------------------------------------------------------




--------------------------------------- Iteration      1(   4)  ---------------------------------------


     EDDAV:  cpu time      0.0463: real time      0.0462
       DOS:  cpu time      0.0003: real time      0.0003
    --------------------------------------------
      LOOP:  cpu time      0.0465: real time      0.0464

 eigenvalue-minimisations  :    40
 total energy-change (2. order) :-0.1346744E-01  (-0.1346738E-01)
 number of electron       2.0000000 magnetization       2.0000000
 augmentation part        2.0000000 magnetization       2.0000000

 Free energy of the ion-electron system (eV)
  ---------------------------------------------------
  alpha Z        PSCENC =         0.00241580
  Ewald energy   TEWEN  =        17.24738773
  -Hartree energ DENC   =       -26.52773826
  -exchange      EXHF   =         0.00000000
  -V(xc)+E(xc)   XCENC  =         5.15388534
  PAW double counting   =         3.58865974       -3.60540285
  entropy T*S    EENTRO =        -0.00006322
  eigenvalues    EBANDS =       -17.32150970
  atomic energy  EATOM  =        24.97394176
  Solvation  Ediel_sol  =         0.00000000
  ---------------------------------------------------
  free energy    TOTEN  =         3.51157634 eV

  energy without entropy =        3.51163957  energy(sigma->0) =        3.51160795


--------------------------------------------------------------------------------------------------------




--------------------------------------- Iteration      1(   5)  ---------------------------------------


     EDDAV:  cpu time      0.0519: real time      0.0516
       DOS:  cpu time      0.0003: real time      0.0003
    CHARGE:  cpu time      1.8356: real time      1.6430
    MIXING:  cpu time      0.3348: real time      0.0615
    --------------------------------------------
      LOOP:  cpu time      2.2227: real time      1.7564

 eigenvalue-minimisations  :    48
 total energy-change (2. order) :-0.3681983E-03  (-0.3681982E-03)
 number of electron       2.0000000 magnetization       2.0000000
 augmentation part        0.0318193 magnetization       0.0318193

 Broyden mixing:
  rms(total) = 0.18658E+00    rms(broyden)= 0.18655E+00
  rms(prec ) = 0.19488E+00
  weight for this iteration     100.00

 Free energy of the ion-electron system (eV)
  ---------------------------------------------------
  alpha Z        PSCENC =         0.00241580
  Ewald energy   TEWEN  =        17.24738773
  -Hartree energ DENC   =       -26.52773826
  -exchange      EXHF   =         0.00000000
  -V(xc)+E(xc)   XCENC  =         5.15388534
  PAW double counting   =         3.58865974       -3.60540285
  entropy T*S    EENTRO =        -0.00006301
  eigenvalues    EBANDS =       -17.32187811
  atomic energy  EATOM  =        24.97394176
  Solvation  Ediel_sol  =         0.00000000
  ---------------------------------------------------
  free energy    TOTEN  =         3.51120815 eV

  energy without entropy =        3.51127116  energy(sigma->0) =        3.51123965


--------------------------------------------------------------------------------------------------------




--------------------------------------- Iteration      1(   6)  ---------------------------------------


    POTLOK:  cpu time      0.1872: real time      0.1870
    SETDIJ:  cpu time      1.6309: real time      1.4168
    EDDIAG:  cpu time      0.0213: real time      0.0118
  RMM-DIIS:  cpu time      0.0254: real time      0.0275
    ORTHCH:  cpu time      0.0043: real time      0.0043
       DOS:  cpu time      0.0003: real time      0.0003
    CHARGE:  cpu time      1.8242: real time      1.6598
    MIXING:  cpu time      0.2713: real time      0.0524
    --------------------------------------------
      LOOP:  cpu time      3.9652: real time      3.3599

 eigenvalue-minimisations  :    32
 total energy-change (2. order) : 0.3356771E+01  (-0.1996815E-01)
 number of electron       2.0000000 magnetization       2.0000000
 augmentation part        0.0324569 magnetization       0.0324569

 Broyden mixing:
  rms(total) = 0.10368E+00    rms(broyden)= 0.10368E+00
  rms(prec ) = 0.11122E+00
  weight for this iteration     100.00

 eigenvalues of (default mixing * dielectric matrix)
  average eigenvalue GAMMA=   0.7831
  0.7831

 Free energy of the ion-electron system (eV)
  ---------------------------------------------------
  alpha Z        PSCENC =         0.00241580
  Ewald energy   TEWEN  =        17.24738773
  -Hartree energ DENC   =       -25.60130258
  -exchange      EXHF   =         0.00000000
  -V(xc)+E(xc)   XCENC  =         7.92464221
  PAW double counting   =        -3.16518323        3.34151169
  entropy T*S    EENTRO =        -0.00000170
  eigenvalues    EBANDS =       -17.85543245
  atomic energy  EATOM  =        24.97394176
  Solvation  Ediel_sol  =         0.00000000
  ---------------------------------------------------
  free energy    TOTEN  =         6.86797923 eV

  energy without entropy =        6.86798093  energy(sigma->0) =        6.86798008


--------------------------------------------------------------------------------------------------------




--------------------------------------- Iteration      1(   7)  ---------------------------------------


    POTLOK:  cpu time      0.2014: real time      0.1903
    SETDIJ:  cpu time      1.5698: real time      1.4000
    EDDIAG:  cpu time      0.0382: real time      0.0108
  RMM-DIIS:  cpu time      0.0221: real time      0.0218
    ORTHCH:  cpu time      0.0042: real time      0.0042
       DOS:  cpu time      0.0003: real time      0.0003
    CHARGE:  cpu time      1.8023: real time      1.6346
    MIXING:  cpu time      0.2918: real time      0.0580
    --------------------------------------------
      LOOP:  cpu time      3.9301: real time      3.3200

 eigenvalue-minimisations  :    32
 total energy-change (2. order) :-0.2042388E+01  (-0.6259097E-02)
 number of electron       2.0000000 magnetization       2.0000000
 augmentation part        0.0328017 magnetization       0.0328017

 Broyden mixing:
  rms(total) = 0.68687E-01    rms(broyden)= 0.68686E-01
  rms(prec ) = 0.74735E-01
  weight for this iteration     100.00

 eigenvalues of (default mixing * dielectric matrix)
  average eigenvalue GAMMA=   1.1771
  1.6480  0.7062

 Free energy of the ion-electron system (eV)
  ---------------------------------------------------
  alpha Z        PSCENC =         0.00241580
  Ewald energy   TEWEN  =        17.24738773
  -Hartree energ DENC   =       -25.08196423
  -exchange      EXHF   =         0.00000000
  -V(xc)+E(xc)   XCENC  =         6.14527810
  PAW double counting   =         4.88543571       -4.86443383
  entropy T*S    EENTRO =        -0.00000162
  eigenvalues    EBANDS =       -18.48246777
  atomic energy  EATOM  =        24.97394176
  Solvation  Ediel_sol  =         0.00000000
  ---------------------------------------------------
  free energy    TOTEN  =         4.82559164 eV

  energy without entropy =        4.82559326  energy(sigma->0) =        4.82559245


--------------------------------------------------------------------------------------------------------




--------------------------------------- Iteration      1(   8)  ---------------------------------------


    POTLOK:  cpu time      0.2052: real time      0.1917
    SETDIJ:  cpu time      1.6236: real time      1.4262
    EDDIAG:  cpu time      0.0277: real time      0.0105
  RMM-DIIS:  cpu time      0.0247: real time      0.0246
    ORTHCH:  cpu time      0.0043: real time      0.0043
       DOS:  cpu time      0.0003: real time      0.0003
    CHARGE:  cpu time      1.8214: real time      1.6352
    MIXING:  cpu time      0.3262: real time      0.0702
    --------------------------------------------
      LOOP:  cpu time      4.0330: real time      3.3631

 eigenvalue-minimisations  :    33
 total energy-change (2. order) :-0.8309998E+00  (-0.1090961E-01)
 number of electron       2.0000000 magnetization       2.0000000
 augmentation part        0.0339368 magnetization       0.0339368

 Broyden mixing:
  rms(total) = 0.29637E-01    rms(broyden)= 0.29631E-01
  rms(prec ) = 0.31421E-01
  weight for this iteration     100.00

 eigenvalues of (default mixing * dielectric matrix)
  average eigenvalue GAMMA=   1.3751
  2.6042  0.8613  0.6600

 Free energy of the ion-electron system (eV)
  ---------------------------------------------------
  alpha Z        PSCENC =         0.00241580
  Ewald energy   TEWEN  =        17.24738773
  -Hartree energ DENC   =       -24.20203195
  -exchange      EXHF   =         0.00000000
  -V(xc)+E(xc)   XCENC  =         5.31705547
  PAW double counting   =         5.34480202       -5.30696221
  entropy T*S    EENTRO =        -0.00000037
  eigenvalues    EBANDS =       -19.38201639
  atomic energy  EATOM  =        24.97394176
  Solvation  Ediel_sol  =         0.00000000
  ---------------------------------------------------
  free energy    TOTEN  =         3.99459185 eV

  energy without entropy =        3.99459222  energy(sigma->0) =        3.99459204


--------------------------------------------------------------------------------------------------------




--------------------------------------- Iteration      1(   9)  ---------------------------------------


    POTLOK:  cpu time      0.1936: real time      0.1888
    SETDIJ:  cpu time      1.5874: real time      1.3999
    EDDIAG:  cpu time      0.0417: real time      0.0125
  RMM-DIIS:  cpu time      0.0229: real time      0.0227
    ORTHCH:  cpu time      0.0043: real time      0.0044
       DOS:  cpu time      0.0003: real time      0.0003
    CHARGE:  cpu time      1.8006: real time      1.6375
    MIXING:  cpu time      0.2436: real time      0.0564
    --------------------------------------------
      LOOP:  cpu time      3.8946: real time      3.3225

 eigenvalue-minimisations  :    32
 total energy-change (2. order) :-0.5898056E-01  (-0.5073422E-03)
 number of electron       2.0000000 magnetization       2.0000000
 augmentation part        0.0340743 magnetization       0.0340743

 Broyden mixing:
  rms(total) = 0.16159E-01    rms(broyden)= 0.16158E-01
  rms(prec ) = 0.17697E-01
  weight for this iteration     100.00

 eigenvalues of (default mixing * dielectric matrix)
  average eigenvalue GAMMA=   1.3346
  2.9136  1.0532  0.7271  0.6446

 Free energy of the ion-electron system (eV)
  ---------------------------------------------------
  alpha Z        PSCENC =         0.00241580
  Ewald energy   TEWEN  =        17.24738773
  -Hartree energ DENC   =       -24.10410336
  -exchange      EXHF   =         0.00000000
  -V(xc)+E(xc)   XCENC  =         5.34373444
  PAW double counting   =         7.95076584       -7.95498065
  entropy T*S    EENTRO =        -0.00000042
  eigenvalues    EBANDS =       -19.52354986
  atomic energy  EATOM  =        24.97394176
  Solvation  Ediel_sol  =         0.00000000
  ---------------------------------------------------
  free energy    TOTEN  =         3.93561129 eV

  energy without entropy =        3.93561171  energy(sigma->0) =        3.93561150


--------------------------------------------------------------------------------------------------------




--------------------------------------- Iteration      1(  10)  ---------------------------------------


    POTLOK:  cpu time      0.2017: real time      0.1891
    SETDIJ:  cpu time      1.6192: real time      1.4117
    EDDIAG:  cpu time      0.0154: real time      0.0102
  RMM-DIIS:  cpu time      0.0226: real time      0.0223
    ORTHCH:  cpu time      0.0043: real time      0.0043
       DOS:  cpu time      0.0003: real time      0.0003
    CHARGE:  cpu time      1.8042: real time      1.6387
    MIXING:  cpu time      0.3158: real time      0.0771
    --------------------------------------------
      LOOP:  cpu time      3.9835: real time      3.3537

 eigenvalue-minimisations  :    32
 total energy-change (2. order) :-0.3284372E+00  (-0.9416393E-04)
 number of electron       2.0000000 magnetization       2.0000000
 augmentation part        0.0340940 magnetization       0.0340940

 Broyden mixing:
  rms(total) = 0.92284E-02    rms(broyden)= 0.92282E-02
  rms(prec ) = 0.10668E-01
  weight for this iteration     100.00

 eigenvalues of (default mixing * dielectric matrix)
  average eigenvalue GAMMA=   1.4924
  3.0505  2.0899  0.9913  0.7024  0.6278

 Free energy of the ion-electron system (eV)
  ---------------------------------------------------
  alpha Z        PSCENC =         0.00241580
  Ewald energy   TEWEN  =        17.24738773
  -Hartree energ DENC   =       -24.12055149
  -exchange      EXHF   =         0.00000000
  -V(xc)+E(xc)   XCENC  =         5.06487815
  PAW double counting   =         7.92762347       -7.94644227
  entropy T*S    EENTRO =        -0.00000049
  eigenvalues    EBANDS =       -19.54207856
  atomic energy  EATOM  =        24.97394176
  Solvation  Ediel_sol  =         0.00000000
  ---------------------------------------------------
  free energy    TOTEN  =         3.60717410 eV

  energy without entropy =        3.60717459  energy(sigma->0) =        3.60717435


--------------------------------------------------------------------------------------------------------




--------------------------------------- Iteration      1(  11)  ---------------------------------------


    POTLOK:  cpu time      0.1907: real time      0.1884
    SETDIJ:  cpu time      1.6030: real time      1.3984
    EDDIAG:  cpu time      0.0203: real time      0.0112
  RMM-DIIS:  cpu time      0.0219: real time      0.0216
    ORTHCH:  cpu time      0.0042: real time      0.0042
       DOS:  cpu time      0.0003: real time      0.0003
    CHARGE:  cpu time      1.8656: real time      1.6208
    MIXING:  cpu time      0.2681: real time      0.0753
    --------------------------------------------
      LOOP:  cpu time      3.9741: real time      3.3202

 eigenvalue-minimisations  :    32
 total energy-change (2. order) :-0.1726735E+00  (-0.1407140E-03)
 number of electron       2.0000000 magnetization       2.0000000
 augmentation part        0.0340666 magnetization       0.0340666

 Broyden mixing:
  rms(total) = 0.33085E-02    rms(broyden)= 0.33085E-02
  rms(prec ) = 0.47826E-02
  weight for this iteration     100.00

 eigenvalues of (default mixing * dielectric matrix)
  average eigenvalue GAMMA=   1.4408
  2.9981  2.4005  1.1027  0.8212  0.6806  0.6418

 Free energy of the ion-electron system (eV)
  ---------------------------------------------------
  alpha Z        PSCENC =         0.00241580
  Ewald energy   TEWEN  =        17.24738773
  -Hartree energ DENC   =       -24.14154108
  -exchange      EXHF   =         0.00000000
  -V(xc)+E(xc)   XCENC  =         4.93200491
  PAW double counting   =         8.14727797       -8.17542586
  entropy T*S    EENTRO =        -0.00000058
  eigenvalues    EBANDS =       -19.55156003
  atomic energy  EATOM  =        24.97394176
  Solvation  Ediel_sol  =         0.00000000
  ---------------------------------------------------
  free energy    TOTEN  =         3.43450062 eV

  energy without entropy =        3.43450120  energy(sigma->0) =        3.43450091


--------------------------------------------------------------------------------------------------------




--------------------------------------- Iteration      1(  12)  ---------------------------------------


    POTLOK:  cpu time      0.1917: real time      0.1908
    SETDIJ:  cpu time      1.6156: real time      1.4054
    EDDIAG:  cpu time      0.0289: real time      0.0119
  RMM-DIIS:  cpu time      0.0222: real time      0.0221
    ORTHCH:  cpu time      0.0042: real time      0.0042
       DOS:  cpu time      0.0003: real time      0.0003
    CHARGE:  cpu time      1.7904: real time      1.6273
    MIXING:  cpu time      0.3001: real time      0.0718
    --------------------------------------------
      LOOP:  cpu time      3.9535: real time      3.3338

 eigenvalue-minimisations  :    32
 total energy-change (2. order) :-0.2289194E-01  (-0.9586863E-04)
 number of electron       2.0000000 magnetization       2.0000000
 augmentation part        0.0340364 magnetization       0.0340364

 Broyden mixing:
  rms(total) = 0.27125E-02    rms(broyden)= 0.27124E-02
  rms(prec ) = 0.40333E-02
  weight for this iteration     100.00

 eigenvalues of (default mixing * dielectric matrix)
  average eigenvalue GAMMA=   1.4306
  2.9918  2.4092  1.5942  0.9776  0.7109  0.6834  0.6474

 Free energy of the ion-electron system (eV)
  ---------------------------------------------------
  alpha Z        PSCENC =         0.00241580
  Ewald energy   TEWEN  =        17.24738773
  -Hartree energ DENC   =       -24.11660214
  -exchange      EXHF   =         0.00000000
  -V(xc)+E(xc)   XCENC  =         4.91053213
  PAW double counting   =         8.12529350       -8.15336372
  entropy T*S    EENTRO =        -0.00000065
  eigenvalues    EBANDS =       -19.57799574
  atomic energy  EATOM  =        24.97394176
  Solvation  Ediel_sol  =         0.00000000
  ---------------------------------------------------
  free energy    TOTEN  =         3.41160868 eV

  energy without entropy =        3.41160933  energy(sigma->0) =        3.41160900


--------------------------------------------------------------------------------------------------------




--------------------------------------- Iteration      1(  13)  ---------------------------------------


    POTLOK:  cpu time      0.1920: real time      0.1884
    SETDIJ:  cpu time      1.7469: real time      1.4459
    EDDIAG:  cpu time      0.0270: real time      0.0116
  RMM-DIIS:  cpu time      0.0226: real time      0.0224
    ORTHCH:  cpu time      0.0043: real time      0.0043
       DOS:  cpu time      0.0003: real time      0.0003
    CHARGE:  cpu time      1.7907: real time      1.6325
    MIXING:  cpu time      0.3375: real time      0.0843
    --------------------------------------------
      LOOP:  cpu time      4.1213: real time      3.3898

 eigenvalue-minimisations  :    32
 total energy-change (2. order) :-0.9755755E-02  (-0.9969783E-04)
 number of electron       2.0000000 magnetization       2.0000000
 augmentation part        0.0340365 magnetization       0.0340365

 Broyden mixing:
  rms(total) = 0.16588E-02    rms(broyden)= 0.16588E-02
  rms(prec ) = 0.26162E-02
  weight for this iteration     100.00

 eigenvalues of (default mixing * dielectric matrix)
  average eigenvalue GAMMA=   1.6024
  3.6240  2.5350  2.5350  1.1877  0.8717  0.6323  0.7168  0.7168

 Free energy of the ion-electron system (eV)
  ---------------------------------------------------
  alpha Z        PSCENC =         0.00241580
  Ewald energy   TEWEN  =        17.24738773
  -Hartree energ DENC   =       -24.04735579
  -exchange      EXHF   =         0.00000000
  -V(xc)+E(xc)   XCENC  =         4.89580978
  PAW double counting   =         8.11473790       -8.14275246
  entropy T*S    EENTRO =        -0.00000063
  eigenvalues    EBANDS =       -19.64233117
  atomic energy  EATOM  =        24.97394176
  Solvation  Ediel_sol  =         0.00000000
  ---------------------------------------------------
  free energy    TOTEN  =         3.40185292 eV

  energy without entropy =        3.40185355  energy(sigma->0) =        3.40185324


--------------------------------------------------------------------------------------------------------




--------------------------------------- Iteration      1(  14)  ---------------------------------------


    POTLOK:  cpu time      0.1923: real time      0.1918
    SETDIJ:  cpu time      1.5803: real time      1.4199
    EDDIAG:  cpu time      0.0390: real time      0.0154
  RMM-DIIS:  cpu time      0.0221: real time      0.0219
    ORTHCH:  cpu time      0.0042: real time      0.0043
       DOS:  cpu time      0.0003: real time      0.0003
    CHARGE:  cpu time      1.8411: real time      1.6377
    MIXING:  cpu time      0.2596: real time      0.0760
    --------------------------------------------
      LOOP:  cpu time      3.9390: real time      3.3672

 eigenvalue-minimisations  :    32
 total energy-change (2. order) :-0.6869738E-02  (-0.1321656E-03)
 number of electron       2.0000000 magnetization       2.0000000
 augmentation part        0.0340465 magnetization       0.0340465

 Broyden mixing:
  rms(total) = 0.93202E-03    rms(broyden)= 0.93200E-03
  rms(prec ) = 0.13851E-02
  weight for this iteration     100.00

 eigenvalues of (default mixing * dielectric matrix)
  average eigenvalue GAMMA=   1.7007
  5.0205  2.8810  2.3268  1.3047  0.8578  0.8578  0.6325  0.6823  0.7431

 Free energy of the ion-electron system (eV)
  ---------------------------------------------------
  alpha Z        PSCENC =         0.00241580
  Ewald energy   TEWEN  =        17.24738773
  -Hartree energ DENC   =       -23.97072707
  -exchange      EXHF   =         0.00000000
  -V(xc)+E(xc)   XCENC  =         4.88740563
  PAW double counting   =         8.07682149       -8.10419889
  entropy T*S    EENTRO =        -0.00000054
  eigenvalues    EBANDS =       -19.71806273
  atomic energy  EATOM  =        24.97394176
  Solvation  Ediel_sol  =         0.00000000
  ---------------------------------------------------
  free energy    TOTEN  =         3.39498318 eV

  energy without entropy =        3.39498372  energy(sigma->0) =        3.39498345


--------------------------------------------------------------------------------------------------------




--------------------------------------- Iteration      1(  15)  ---------------------------------------


    POTLOK:  cpu time      0.1940: real time      0.1941
    SETDIJ:  cpu time      1.5963: real time      1.4201
    EDDIAG:  cpu time      0.0278: real time      0.0119
  RMM-DIIS:  cpu time      0.0217: real time      0.0217
    ORTHCH:  cpu time      0.0042: real time      0.0042
       DOS:  cpu time      0.0003: real time      0.0003
    CHARGE:  cpu time      1.8432: real time      1.6410
    MIXING:  cpu time      0.3158: real time      0.0757
    --------------------------------------------
      LOOP:  cpu time      4.0034: real time      3.3691

 eigenvalue-minimisations  :    32
 total energy-change (2. order) :-0.3919179E-03  (-0.5140628E-04)
 number of electron       2.0000000 magnetization       2.0000000
 augmentation part        0.0340491 magnetization       0.0340491

 Broyden mixing:
  rms(total) = 0.71768E-03    rms(broyden)= 0.71767E-03
  rms(prec ) = 0.10926E-02
  weight for this iteration     100.00

 eigenvalues of (default mixing * dielectric matrix)
  average eigenvalue GAMMA=   1.7381
  5.7455  2.8800  2.2883  1.6372  1.1971  0.8995  0.6303  0.7131  0.7131  0.6766

 Free energy of the ion-electron system (eV)
  ---------------------------------------------------
  alpha Z        PSCENC =         0.00241580
  Ewald energy   TEWEN  =        17.24738773
  -Hartree energ DENC   =       -23.95526644
  -exchange      EXHF   =         0.00000000
  -V(xc)+E(xc)   XCENC  =         4.88644106
  PAW double counting   =         8.07736412       -8.10423143
  entropy T*S    EENTRO =        -0.00000051
  eigenvalues    EBANDS =       -19.73346084
  atomic energy  EATOM  =        24.97394176
  Solvation  Ediel_sol  =         0.00000000
  ---------------------------------------------------
  free energy    TOTEN  =         3.39459127 eV

  energy without entropy =        3.39459177  energy(sigma->0) =        3.39459152


--------------------------------------------------------------------------------------------------------




--------------------------------------- Iteration      1(  16)  ---------------------------------------


    POTLOK:  cpu time      0.2028: real time      0.1914
    SETDIJ:  cpu time      1.5850: real time      1.4057
    EDDIAG:  cpu time      0.0399: real time      0.0110
  RMM-DIIS:  cpu time      0.0218: real time      0.0216
    ORTHCH:  cpu time      0.0042: real time      0.0042
       DOS:  cpu time      0.0003: real time      0.0003
    CHARGE:  cpu time      1.7952: real time      1.6293
    MIXING:  cpu time      0.2932: real time      0.0757
    --------------------------------------------
      LOOP:  cpu time      3.9424: real time      3.3392

 eigenvalue-minimisations  :    32
 total energy-change (2. order) :-0.2299894E-02  (-0.3141442E-04)
 number of electron       2.0000000 magnetization       2.0000000
 augmentation part        0.0340507 magnetization       0.0340507

 Broyden mixing:
  rms(total) = 0.43963E-03    rms(broyden)= 0.43962E-03
  rms(prec ) = 0.66144E-03
  weight for this iteration     100.00

 eigenvalues of (default mixing * dielectric matrix)
  average eigenvalue GAMMA=   1.8894
  6.8542  3.0765  2.6709  2.2328  1.3960  0.9223  0.9223  0.7356  0.6300  0.6798
  0.6635

 Free energy of the ion-electron system (eV)
  ---------------------------------------------------
  alpha Z        PSCENC =         0.00241580
  Ewald energy   TEWEN  =        17.24738773
  -Hartree energ DENC   =       -23.93067418
  -exchange      EXHF   =         0.00000000
  -V(xc)+E(xc)   XCENC  =         4.88467211
  PAW double counting   =         8.10470489       -8.13276186
  entropy T*S    EENTRO =        -0.00000046
  eigenvalues    EBANDS =       -19.75739442
  atomic energy  EATOM  =        24.97394176
  Solvation  Ediel_sol  =         0.00000000
  ---------------------------------------------------
  free energy    TOTEN  =         3.39229137 eV

  energy without entropy =        3.39229183  energy(sigma->0) =        3.39229160


--------------------------------------------------------------------------------------------------------




--------------------------------------- Iteration      1(  17)  ---------------------------------------


    POTLOK:  cpu time      0.1998: real time      0.1921
    SETDIJ:  cpu time      1.5851: real time      1.4188
    EDDIAG:  cpu time      0.0421: real time      0.0135
  RMM-DIIS:  cpu time      0.0222: real time      0.0220
    ORTHCH:  cpu time      0.0042: real time      0.0042
       DOS:  cpu time      0.0003: real time      0.0003
    CHARGE:  cpu time      1.7972: real time      1.6296
    MIXING:  cpu time      0.2933: real time      0.0787
    --------------------------------------------
      LOOP:  cpu time      3.9441: real time      3.3592

 eigenvalue-minimisations  :    32
 total energy-change (2. order) :-0.2263904E-03  (-0.3095974E-04)
 number of electron       2.0000000 magnetization       2.0000000
 augmentation part        0.0340524 magnetization       0.0340524

 Broyden mixing:
  rms(total) = 0.26498E-03    rms(broyden)= 0.26497E-03
  rms(prec ) = 0.37260E-03
  weight for this iteration     100.00

 eigenvalues of (default mixing * dielectric matrix)
  average eigenvalue GAMMA=   1.9503
  7.6673  3.7028  2.7523  2.3595  1.4190  1.1384  0.8274  0.8274  0.7704  0.6733
  0.6414  0.6241

 Free energy of the ion-electron system (eV)
  ---------------------------------------------------
  alpha Z        PSCENC =         0.00241580
  Ewald energy   TEWEN  =        17.24738773
  -Hartree energ DENC   =       -23.91206740
  -exchange      EXHF   =         0.00000000
  -V(xc)+E(xc)   XCENC  =         4.88317636
  PAW double counting   =         8.10414946       -8.13219152
  entropy T*S    EENTRO =        -0.00000043
  eigenvalues    EBANDS =       -19.77474678
  atomic energy  EATOM  =        24.97394176
  Solvation  Ediel_sol  =         0.00000000
  ---------------------------------------------------
  free energy    TOTEN  =         3.39206498 eV

  energy without entropy =        3.39206541  energy(sigma->0) =        3.39206520


--------------------------------------------------------------------------------------------------------




--------------------------------------- Iteration      1(  18)  ---------------------------------------


    POTLOK:  cpu time      0.2067: real time      0.1926
    SETDIJ:  cpu time      1.7210: real time      1.4196
    EDDIAG:  cpu time      0.0268: real time      0.0102
  RMM-DIIS:  cpu time      0.0237: real time      0.0235
    ORTHCH:  cpu time      0.0042: real time      0.0042
       DOS:  cpu time      0.0003: real time      0.0003
    CHARGE:  cpu time      1.8008: real time      1.6362
    MIXING:  cpu time      0.3551: real time      0.0907
    --------------------------------------------
      LOOP:  cpu time      4.1389: real time      3.3772

 eigenvalue-minimisations  :    32
 total energy-change (2. order) : 0.1657834E-03  (-0.1910023E-04)
 number of electron       2.0000000 magnetization       2.0000000
 augmentation part        0.0340521 magnetization       0.0340521

 Broyden mixing:
  rms(total) = 0.17298E-03    rms(broyden)= 0.17298E-03
  rms(prec ) = 0.25849E-03
  weight for this iteration     100.00

 eigenvalues of (default mixing * dielectric matrix)
  average eigenvalue GAMMA=   2.0049
  8.6019  4.1008  2.6972  2.4434  1.7431  1.2493  0.9347  0.9347  0.7079  0.7079
  0.6796  0.6316  0.6316

 Free energy of the ion-electron system (eV)
  ---------------------------------------------------
  alpha Z        PSCENC =         0.00241580
  Ewald energy   TEWEN  =        17.24738773
  -Hartree energ DENC   =       -23.91130894
  -exchange      EXHF   =         0.00000000
  -V(xc)+E(xc)   XCENC  =         4.88349199
  PAW double counting   =         8.10678625       -8.13482656
  entropy T*S    EENTRO =        -0.00000044
  eigenvalues    EBANDS =       -19.77565684
  atomic energy  EATOM  =        24.97394176
  Solvation  Ediel_sol  =         0.00000000
  ---------------------------------------------------
  free energy    TOTEN  =         3.39223077 eV

  energy without entropy =        3.39223120  energy(sigma->0) =        3.39223099


--------------------------------------------------------------------------------------------------------




--------------------------------------- Iteration      1(  19)  ---------------------------------------


    POTLOK:  cpu time      0.2047: real time      0.1919
    SETDIJ:  cpu time      1.5894: real time      1.4205
    EDDIAG:  cpu time      0.0370: real time      0.0146
  RMM-DIIS:  cpu time      0.0238: real time      0.0236
    ORTHCH:  cpu time      0.0042: real time      0.0042
       DOS:  cpu time      0.0003: real time      0.0003
    CHARGE:  cpu time      1.7981: real time      1.6327
    MIXING:  cpu time      0.2712: real time      0.0852
    --------------------------------------------
      LOOP:  cpu time      3.9294: real time      3.3731

 eigenvalue-minimisations  :    32
 total energy-change (2. order) :-0.3132476E-02  (-0.3012096E-05)
 number of electron       2.0000000 magnetization       2.0000000
 augmentation part        0.0340504 magnetization       0.0340504

 Broyden mixing:
  rms(total) = 0.13368E-03    rms(broyden)= 0.13367E-03
  rms(prec ) = 0.16776E-03
  weight for this iteration     100.00

 eigenvalues of (default mixing * dielectric matrix)
  average eigenvalue GAMMA=   2.0297
  9.2576  4.2874  2.8145  2.2656  2.2656  1.2191  1.2191  0.8740  0.8740  0.6874
  0.6874  0.7017  0.6249  0.6373

 Free energy of the ion-electron system (eV)
  ---------------------------------------------------
  alpha Z        PSCENC =         0.00241580
  Ewald energy   TEWEN  =        17.24738773
  -Hartree energ DENC   =       -23.90368273
  -exchange      EXHF   =         0.00000000
  -V(xc)+E(xc)   XCENC  =         4.87976352
  PAW double counting   =         8.10443081       -8.13246583
  entropy T*S    EENTRO =        -0.00000042
  eigenvalues    EBANDS =       -19.78269235
  atomic energy  EATOM  =        24.97394176
  Solvation  Ediel_sol  =         0.00000000
  ---------------------------------------------------
  free energy    TOTEN  =         3.38909829 eV

  energy without entropy =        3.38909871  energy(sigma->0) =        3.38909850


--------------------------------------------------------------------------------------------------------




--------------------------------------- Iteration      1(  20)  ---------------------------------------


    POTLOK:  cpu time      0.2128: real time      0.1924
    SETDIJ:  cpu time      1.6282: real time      1.4273
    EDDIAG:  cpu time      0.0291: real time      0.0136
  RMM-DIIS:  cpu time      0.0219: real time      0.0217
    ORTHCH:  cpu time      0.0042: real time      0.0042
       DOS:  cpu time      0.0003: real time      0.0003
    CHARGE:  cpu time      1.8010: real time      1.6358
    MIXING:  cpu time      0.2603: real time      0.0870
    --------------------------------------------
      LOOP:  cpu time      3.9567: real time      3.3821

 eigenvalue-minimisations  :    31
 total energy-change (2. order) :-0.5721614E-03  (-0.2914433E-06)
 number of electron       2.0000000 magnetization       2.0000000
 augmentation part        0.0340506 magnetization       0.0340506

 Broyden mixing:
  rms(total) = 0.75150E-04    rms(broyden)= 0.75134E-04
  rms(prec ) = 0.10196E-03
  weight for this iteration     100.00

 eigenvalues of (default mixing * dielectric matrix)
  average eigenvalue GAMMA=   2.0842
  9.7439  4.5455  3.1047  2.4859  2.4859  1.6054  1.1822  1.0229  0.8737  0.8737
  0.7042  0.6910  0.6910  0.6208  0.6316

 Free energy of the ion-electron system (eV)
  ---------------------------------------------------
  alpha Z        PSCENC =         0.00241580
  Ewald energy   TEWEN  =        17.24738773
  -Hartree energ DENC   =       -23.90128162
  -exchange      EXHF   =         0.00000000
  -V(xc)+E(xc)   XCENC  =         4.87887936
  PAW double counting   =         8.10426937       -8.13230221
  entropy T*S    EENTRO =        -0.00000042
  eigenvalues    EBANDS =       -19.78478364
  atomic energy  EATOM  =        24.97394176
  Solvation  Ediel_sol  =         0.00000000
  ---------------------------------------------------
  free energy    TOTEN  =         3.38852613 eV

  energy without entropy =        3.38852655  energy(sigma->0) =        3.38852634


--------------------------------------------------------------------------------------------------------




--------------------------------------- Iteration      1(  21)  ---------------------------------------


    POTLOK:  cpu time      0.2077: real time      0.1921
    SETDIJ:  cpu time      1.5818: real time      1.4029
    EDDIAG:  cpu time      0.0402: real time      0.0110
  RMM-DIIS:  cpu time      0.0223: real time      0.0221
    ORTHCH:  cpu time      0.0043: real time      0.0043
       DOS:  cpu time      0.0003: real time      0.0003
    CHARGE:  cpu time      1.8050: real time      1.6321
    MIXING:  cpu time      0.3285: real time      0.0970
    --------------------------------------------
      LOOP:  cpu time      3.9904: real time      3.3617

 eigenvalue-minimisations  :    31
 total energy-change (2. order) :-0.3154598E-03  (-0.3791771E-06)
 number of electron       2.0000000 magnetization       2.0000000
 augmentation part        0.0340507 magnetization       0.0340507

 Broyden mixing:
  rms(total) = 0.41340E-04    rms(broyden)= 0.41311E-04
  rms(prec ) = 0.54578E-04
  weight for this iteration     100.00

 eigenvalues of (default mixing * dielectric matrix)
  average eigenvalue GAMMA=   2.1461
 10.2937  5.1274  3.5351  2.5354  2.5354  1.9684  1.2403  1.2403  0.9018  0.9018
  0.7110  0.7110  0.6926  0.6926  0.6181  0.6326

 Free energy of the ion-electron system (eV)
  ---------------------------------------------------
  alpha Z        PSCENC =         0.00241580
  Ewald energy   TEWEN  =        17.24738773
  -Hartree energ DENC   =       -23.90064516
  -exchange      EXHF   =         0.00000000
  -V(xc)+E(xc)   XCENC  =         4.87870011
  PAW double counting   =         8.10310170       -8.13110188
  entropy T*S    EENTRO =        -0.00000044
  eigenvalues    EBANDS =       -19.78558896
  atomic energy  EATOM  =        24.97394176
  Solvation  Ediel_sol  =         0.00000000
  ---------------------------------------------------
  free energy    TOTEN  =         3.38821067 eV

  energy without entropy =        3.38821111  energy(sigma->0) =        3.38821089


--------------------------------------------------------------------------------------------------------




--------------------------------------- Iteration      1(  22)  ---------------------------------------


    POTLOK:  cpu time      0.2043: real time      0.1886
    SETDIJ:  cpu time      1.5961: real time      1.4099
    EDDIAG:  cpu time      0.0367: real time      0.0128
  RMM-DIIS:  cpu time      0.0220: real time      0.0217
    ORTHCH:  cpu time      0.0043: real time      0.0043
       DOS:  cpu time      0.0003: real time      0.0003
    CHARGE:  cpu time      1.8443: real time      1.6438
    MIXING:  cpu time      0.3157: real time      0.1025
    --------------------------------------------
      LOOP:  cpu time      4.0235: real time      3.3839

 eigenvalue-minimisations  :    31
 total energy-change (2. order) :-0.1136536E-03  (-0.1724554E-06)
 number of electron       2.0000000 magnetization       2.0000000
 augmentation part        0.0340508 magnetization       0.0340508

 Broyden mixing:
  rms(total) = 0.26903E-04    rms(broyden)= 0.26860E-04
  rms(prec ) = 0.35437E-04
  weight for this iteration     100.00

 eigenvalues of (default mixing * dielectric matrix)
  average eigenvalue GAMMA=   2.1269
 10.4969  5.3429  3.6164  2.7219  2.2607  2.2607  1.4242  1.1910  0.9960  0.8909
  0.8909  0.7291  0.7291  0.6791  0.6791  0.6253  0.6238

 Free energy of the ion-electron system (eV)
  ---------------------------------------------------
  alpha Z        PSCENC =         0.00241580
  Ewald energy   TEWEN  =        17.24738773
  -Hartree energ DENC   =       -23.89995779
  -exchange      EXHF   =         0.00000000
  -V(xc)+E(xc)   XCENC  =         4.87852555
  PAW double counting   =         8.10218217       -8.13016200
  entropy T*S    EENTRO =        -0.00000044
  eigenvalues    EBANDS =       -19.78623578
  atomic energy  EATOM  =        24.97394176
  Solvation  Ediel_sol  =         0.00000000
  ---------------------------------------------------
  free energy    TOTEN  =         3.38809702 eV

  energy without entropy =        3.38809746  energy(sigma->0) =        3.38809724


--------------------------------------------------------------------------------------------------------




--------------------------------------- Iteration      1(  23)  ---------------------------------------


    POTLOK:  cpu time      0.2084: real time      0.1877
    SETDIJ:  cpu time      1.5902: real time      1.4029
    EDDIAG:  cpu time      0.0248: real time      0.0107
  RMM-DIIS:  cpu time      0.0216: real time      0.0215
    ORTHCH:  cpu time      0.0043: real time      0.0043
       DOS:  cpu time      0.0003: real time      0.0003
    CHARGE:  cpu time      1.7931: real time      1.6213
    MIXING:  cpu time      0.3437: real time      0.1192
    --------------------------------------------
      LOOP:  cpu time      3.9863: real time      3.3678

 eigenvalue-minimisations  :    30
 total energy-change (2. order) :-0.7920909E-04  (-0.6060308E-07)
 number of electron       2.0000000 magnetization       2.0000000
 augmentation part        0.0340509 magnetization       0.0340509

 Broyden mixing:
  rms(total) = 0.16829E-04    rms(broyden)= 0.16761E-04
  rms(prec ) = 0.22078E-04
  weight for this iteration     100.00

 eigenvalues of (default mixing * dielectric matrix)
  average eigenvalue GAMMA=   2.1395
 10.6307  5.6150  3.8089  2.7961  2.4467  2.4467  1.7095  1.2380  1.2380  0.9080
  0.9080  0.7327  0.7327  0.7093  0.6719  0.6719  0.6234  0.6234

 Free energy of the ion-electron system (eV)
  ---------------------------------------------------
  alpha Z        PSCENC =         0.00241580
  Ewald energy   TEWEN  =        17.24738773
  -Hartree energ DENC   =       -23.89945892
  -exchange      EXHF   =         0.00000000
  -V(xc)+E(xc)   XCENC  =         4.87849557
  PAW double counting   =         8.10337021       -8.13140330
  entropy T*S    EENTRO =        -0.00000044
  eigenvalues    EBANDS =       -19.78673060
  atomic energy  EATOM  =        24.97394176
  Solvation  Ediel_sol  =         0.00000000
  ---------------------------------------------------
  free energy    TOTEN  =         3.38801781 eV

  energy without entropy =        3.38801825  energy(sigma->0) =        3.38801803


--------------------------------------------------------------------------------------------------------




--------------------------------------- Iteration      1(  24)  ---------------------------------------


    POTLOK:  cpu time      0.1990: real time      0.1865
    SETDIJ:  cpu time      1.7099: real time      1.4105
    EDDIAG:  cpu time      0.0355: real time      0.0124
  RMM-DIIS:  cpu time      0.0221: real time      0.0220
    ORTHCH:  cpu time      0.0043: real time      0.0043
       DOS:  cpu time      0.0003: real time      0.0003
    CHARGE:  cpu time      1.8135: real time      1.6161
    MIXING:  cpu time      0.2911: real time      0.1094
    --------------------------------------------
      LOOP:  cpu time      4.0758: real time      3.3616

 eigenvalue-minimisations  :    30
 total energy-change (2. order) :-0.1450099E-03  (-0.4163748E-07)
 number of electron       2.0000000 magnetization       2.0000000
 augmentation part        0.0340510 magnetization       0.0340510

 Broyden mixing:
  rms(total) = 0.11729E-04    rms(broyden)= 0.11630E-04
  rms(prec ) = 0.14666E-04
  weight for this iteration     100.00

 eigenvalues of (default mixing * dielectric matrix)
  average eigenvalue GAMMA=   2.1317
 10.6591  5.9418  4.0105  2.9586  2.5149  2.5149  1.8635  1.3726  1.2025  0.9210
  0.9210  0.8126  0.8126  0.7167  0.6962  0.6962  0.6372  0.6372  0.6140

 Free energy of the ion-electron system (eV)
  ---------------------------------------------------
  alpha Z        PSCENC =         0.00241580
  Ewald energy   TEWEN  =        17.24738773
  -Hartree energ DENC   =       -23.89933438
  -exchange      EXHF   =         0.00000000
  -V(xc)+E(xc)   XCENC  =         4.87843305
  PAW double counting   =         8.10288510       -8.13091613
  entropy T*S    EENTRO =        -0.00000044
  eigenvalues    EBANDS =       -19.78693970
  atomic energy  EATOM  =        24.97394176
  Solvation  Ediel_sol  =         0.00000000
  ---------------------------------------------------
  free energy    TOTEN  =         3.38787280 eV

  energy without entropy =        3.38787324  energy(sigma->0) =        3.38787302


--------------------------------------------------------------------------------------------------------




--------------------------------------- Iteration      1(  25)  ---------------------------------------


    POTLOK:  cpu time      0.1986: real time      0.1877
    SETDIJ:  cpu time      1.6058: real time      1.3977
    EDDIAG:  cpu time      0.0259: real time      0.0110
  RMM-DIIS:  cpu time      0.0222: real time      0.0220
    ORTHCH:  cpu time      0.0043: real time      0.0043
       DOS:  cpu time      0.0003: real time      0.0003
    CHARGE:  cpu time      1.7826: real time      1.6132
    MIXING:  cpu time      0.3066: real time      0.1149
    --------------------------------------------
      LOOP:  cpu time      3.9462: real time      3.3512

 eigenvalue-minimisations  :    29
 total energy-change (2. order) : 0.1990238E-05  (-0.1882304E-07)
 number of electron       2.0000000 magnetization       2.0000000
 augmentation part        0.0340511 magnetization       0.0340511

 Broyden mixing:
  rms(total) = 0.89820E-05    rms(broyden)= 0.88529E-05
  rms(prec ) = 0.11144E-04
  weight for this iteration     100.00

 eigenvalues of (default mixing * dielectric matrix)
  average eigenvalue GAMMA=   2.1134
 10.6878  6.1135  3.9831  3.0725  2.5914  2.5914  1.9668  1.5605  1.1438  1.1438
  0.9370  0.9370  0.8348  0.7311  0.7311  0.6814  0.6814  0.6150  0.6320  0.6320

 Free energy of the ion-electron system (eV)
  ---------------------------------------------------
  alpha Z        PSCENC =         0.00241580
  Ewald energy   TEWEN  =        17.24738773
  -Hartree energ DENC   =       -23.89943875
  -exchange      EXHF   =         0.00000000
  -V(xc)+E(xc)   XCENC  =         4.87844894
  PAW double counting   =         8.10353052       -8.13156514
  entropy T*S    EENTRO =        -0.00000044
  eigenvalues    EBANDS =       -19.78684564
  atomic energy  EATOM  =        24.97394176
  Solvation  Ediel_sol  =         0.00000000
  ---------------------------------------------------
  free energy    TOTEN  =         3.38787479 eV

  energy without entropy =        3.38787523  energy(sigma->0) =        3.38787501


--------------------------------------------------------------------------------------------------------




--------------------------------------- Iteration      1(  26)  ---------------------------------------


    POTLOK:  cpu time      0.1939: real time      0.1844
    SETDIJ:  cpu time      1.5899: real time      1.4253
    EDDIAG:  cpu time      0.0347: real time      0.0120
  RMM-DIIS:  cpu time      0.0216: real time      0.0214
    ORTHCH:  cpu time      0.0042: real time      0.0042
       DOS:  cpu time      0.0003: real time      0.0003
    CHARGE:  cpu time      1.8331: real time      1.6162
    MIXING:  cpu time      0.2849: real time      0.1174
    --------------------------------------------
      LOOP:  cpu time      3.9626: real time      3.3812

 eigenvalue-minimisations  :    29
 total energy-change (2. order) :-0.3332432E-05  (-0.9161809E-08)
 number of electron       2.0000000 magnetization       2.0000000
 augmentation part        0.0340511 magnetization       0.0340511

 Broyden mixing:
  rms(total) = 0.53970E-05    rms(broyden)= 0.51794E-05
  rms(prec ) = 0.67779E-05
  weight for this iteration     100.00

 eigenvalues of (default mixing * dielectric matrix)
  average eigenvalue GAMMA=   2.1350
 10.7717  6.4723  4.0602  3.2121  2.7640  2.7640  2.0678  1.8789  1.3520  1.1942
  1.0419  0.9097  0.9097  0.7347  0.7347  0.7189  0.6846  0.6846  0.6216  0.6216
  0.6358

 Free energy of the ion-electron system (eV)
  ---------------------------------------------------
  alpha Z        PSCENC =         0.00241580
  Ewald energy   TEWEN  =        17.24738773
  -Hartree energ DENC   =       -23.89955571
  -exchange      EXHF   =         0.00000000
  -V(xc)+E(xc)   XCENC  =         4.87847069
  PAW double counting   =         8.10348369       -8.13151820
  entropy T*S    EENTRO =        -0.00000044
  eigenvalues    EBANDS =       -19.78675387
  atomic energy  EATOM  =        24.97394176
  Solvation  Ediel_sol  =         0.00000000
  ---------------------------------------------------
  free energy    TOTEN  =         3.38787145 eV

  energy without entropy =        3.38787190  energy(sigma->0) =        3.38787168


--------------------------------------------------------------------------------------------------------




--------------------------------------- Iteration      1(  27)  ---------------------------------------


    POTLOK:  cpu time      0.1904: real time      0.1864
    SETDIJ:  cpu time      1.5682: real time      1.3966
    EDDIAG:  cpu time      0.0360: real time      0.0132
  RMM-DIIS:  cpu time      0.0221: real time      0.0219
    ORTHCH:  cpu time      0.0042: real time      0.0042
       DOS:  cpu time      0.0003: real time      0.0003
    CHARGE:  cpu time      1.7968: real time      1.6013
    MIXING:  cpu time      0.3175: real time      0.1272
    --------------------------------------------
      LOOP:  cpu time      3.9356: real time      3.3511

 eigenvalue-minimisations  :    29
 total energy-change (2. order) :-0.7171044E-04  (-0.6995671E-08)
 number of electron       2.0000000 magnetization       2.0000000
 augmentation part        0.0340511 magnetization       0.0340511

 Broyden mixing:
  rms(total) = 0.34619E-05    rms(broyden)= 0.31119E-05
  rms(prec ) = 0.41345E-05
  weight for this iteration     100.00
  WARNING: grid for Broyden might be to small

 eigenvalues of (default mixing * dielectric matrix)
  average eigenvalue GAMMA=   2.1470
 10.8478  6.8306  4.4208  3.4137  2.5990  2.5990  2.4897  2.0584  1.5846  1.1515
  1.1515  0.9254  0.9254  0.8193  0.7410  0.7410  0.6934  0.6934  0.6808  0.6352
  0.6164  0.6164

 Free energy of the ion-electron system (eV)
  ---------------------------------------------------
  alpha Z        PSCENC =         0.00241580
  Ewald energy   TEWEN  =        17.24738773
  -Hartree energ DENC   =       -23.89957166
  -exchange      EXHF   =         0.00000000
  -V(xc)+E(xc)   XCENC  =         4.87842308
  PAW double counting   =         8.10363507       -8.13166951
  entropy T*S    EENTRO =        -0.00000044
  eigenvalues    EBANDS =       -19.78676208
  atomic energy  EATOM  =        24.97394176
  Solvation  Ediel_sol  =         0.00000000
  ---------------------------------------------------
  free energy    TOTEN  =         3.38779974 eV

  energy without entropy =        3.38780019  energy(sigma->0) =        3.38779997


--------------------------------------------------------------------------------------------------------




--------------------------------------- Iteration      1(  28)  ---------------------------------------


    POTLOK:  cpu time      0.2028: real time      0.1864
    SETDIJ:  cpu time      1.5499: real time      1.3824
    EDDIAG:  cpu time      0.0423: real time      0.0133
  RMM-DIIS:  cpu time      0.0222: real time      0.0222
    ORTHCH:  cpu time      0.0043: real time      0.0043
       DOS:  cpu time      0.0003: real time      0.0003
    CHARGE:  cpu time      1.7877: real time      1.6223
    MIXING:  cpu time      0.3171: real time      0.1342
    --------------------------------------------
      LOOP:  cpu time      3.9265: real time      3.3654

 eigenvalue-minimisations  :    29
 total energy-change (2. order) :-0.3743758E-04  (-0.3708441E-08)
 number of electron       2.0000000 magnetization       2.0000000
 augmentation part        0.0340511 magnetization       0.0340511

 Broyden mixing:
  rms(total) = 0.23774E-05    rms(broyden)= 0.18305E-05
  rms(prec ) = 0.26409E-05
  weight for this iteration     100.00
  WARNING: grid for Broyden might be to small

 eigenvalues of (default mixing * dielectric matrix)
  average eigenvalue GAMMA=   2.1271
 10.8504  7.0282  4.6557  3.6057  2.6607  2.5055  2.5055  2.1132  1.6937  1.1743
  1.1577  0.9405  0.9405  0.8674  0.8674  0.7252  0.7252  0.6917  0.6917  0.6603
  0.6299  0.6166  0.6166

 Free energy of the ion-electron system (eV)
  ---------------------------------------------------
  alpha Z        PSCENC =         0.00241580
  Ewald energy   TEWEN  =        17.24738773
  -Hartree energ DENC   =       -23.89953584
  -exchange      EXHF   =         0.00000000
  -V(xc)+E(xc)   XCENC  =         4.87839033
  PAW double counting   =         8.10362527       -8.13166015
  entropy T*S    EENTRO =        -0.00000044
  eigenvalues    EBANDS =       -19.78680216
  atomic energy  EATOM  =        24.97394176
  Solvation  Ediel_sol  =         0.00000000
  ---------------------------------------------------
  free energy    TOTEN  =         3.38776231 eV

  energy without entropy =        3.38776275  energy(sigma->0) =        3.38776253


--------------------------------------------------------------------------------------------------------




--------------------------------------- Iteration      1(  29)  ---------------------------------------


    POTLOK:  cpu time      0.2026: real time      0.1882
    SETDIJ:  cpu time      1.5609: real time      1.3998
    EDDIAG:  cpu time      0.0340: real time      0.0132
  RMM-DIIS:  cpu time      0.0217: real time      0.0217
    ORTHCH:  cpu time      0.0042: real time      0.0042
       DOS:  cpu time      0.0003: real time      0.0003
    CHARGE:  cpu time      1.7788: real time      1.6193
    MIXING:  cpu time      0.3836: real time      0.1490
    --------------------------------------------
      LOOP:  cpu time      3.9861: real time      3.3955

 eigenvalue-minimisations  :    29
 total energy-change (2. order) : 0.5727750E-05  (-0.1766727E-08)
 number of electron       2.0000000 magnetization       2.0000000
 augmentation part        0.0340511 magnetization       0.0340511

 Broyden mixing:
  rms(total) = 0.21563E-05    rms(broyden)= 0.15324E-05
  rms(prec ) = 0.21143E-05
  weight for this iteration     100.00
  WARNING: grid for Broyden might be to small

 eigenvalues of (default mixing * dielectric matrix)
  average eigenvalue GAMMA=   2.0992
 10.8412  7.1538  4.7812  3.7615  2.6511  2.6511  2.2361  1.8820  1.8820  1.3548
  1.1304  1.1304  1.0463  0.8917  0.8917  0.7442  0.7442  0.7143  0.6826  0.6826
  0.6564  0.6208  0.6208  0.6307

 Free energy of the ion-electron system (eV)
  ---------------------------------------------------
  alpha Z        PSCENC =         0.00241580
  Ewald energy   TEWEN  =        17.24738773
  -Hartree energ DENC   =       -23.89953716
  -exchange      EXHF   =         0.00000000
[...]


    POTLOK:  cpu time      0.2017: real time      0.1885
    SETDIJ:  cpu time      1.5932: real time      1.4084
    EDDIAG:  cpu time      0.0255: real time      0.0123
  RMM-DIIS:  cpu time      0.0223: real time      0.0220
    ORTHCH:  cpu time      0.0046: real time      0.0046
       DOS:  cpu time      0.0003: real time      0.0003
    CHARGE:  cpu time      1.7927: real time      1.6301
    MIXING:  cpu time      0.3030: real time      0.1075
    --------------------------------------------
      LOOP:  cpu time      3.9432: real time      3.3738

 eigenvalue-minimisations  :    28
 total energy-change (2. order) :-0.6346274E-05  ( 0.0000000E+00)
 number of electron       2.0000000 magnetization       2.0000000
 augmentation part        0.0304948 magnetization       0.0304948

 Broyden mixing:
  rms(total) = 0.61680E-06    rms(broyden)= 0.34974E-06
  rms(prec ) = 0.45931E-06
  weight for this iteration     100.00
  WARNING: grid for Broyden might be to small

 eigenvalues of (default mixing * dielectric matrix)
  average eigenvalue GAMMA=   1.9244
  9.9738  4.8026  3.2111  2.6331  2.2843  1.6533  1.3294  1.2079  0.9876  0.9876
  0.8330  0.7611  0.7031  0.7031  0.6866  0.6086  0.6386  0.6354

 Free energy of the ion-electron system (eV)
  ---------------------------------------------------
  alpha Z        PSCENC =         0.00241580
  Ewald energy   TEWEN  =         1.45716956
  -Hartree energ DENC   =       -18.15847444
  -exchange      EXHF   =         0.00000000
  -V(xc)+E(xc)   XCENC  =         4.67201733
  PAW double counting   =         4.27381524       -4.29412404
  entropy T*S    EENTRO =        -0.00000000
  eigenvalues    EBANDS =       -15.16169300
  atomic energy  EATOM  =        24.97394176
  Solvation  Ediel_sol  =         0.00000000
  ---------------------------------------------------
  free energy    TOTEN  =        -2.23493179 eV

  energy without entropy =       -2.23493179  energy(sigma->0) =       -2.23493179


--------------------------------------------------------------------------------------------------------




--------------------------------------- Iteration      9(  20)  ---------------------------------------


    POTLOK:  cpu time      0.1965: real time      0.1880
    SETDIJ:  cpu time      1.5882: real time      1.4231
    EDDIAG:  cpu time      0.0373: real time      0.0125
  RMM-DIIS:  cpu time      0.0217: real time      0.0217
    ORTHCH:  cpu time      0.0049: real time      0.0048
       DOS:  cpu time      0.0003: real time      0.0003
    CHARGE:  cpu time      1.8006: real time      1.6349
    MIXING:  cpu time      0.3281: real time      0.1207
    --------------------------------------------
      LOOP:  cpu time      3.9776: real time      3.4059

 eigenvalue-minimisations  :    28
 total energy-change (2. order) :-0.3378374E-05  ( 0.0000000E+00)
 number of electron       2.0000000 magnetization       2.0000000
 augmentation part        0.0304948 magnetization       0.0304948

 Broyden mixing:
  rms(total) = 0.57748E-06    rms(broyden)= 0.27451E-06
  rms(prec ) = 0.33316E-06
  weight for this iteration     100.00
  WARNING: grid for Broyden might be to small

 eigenvalues of (default mixing * dielectric matrix)
  average eigenvalue GAMMA=   1.9217
  9.9865  4.8295  3.4994  2.6403  2.4985  1.8005  1.4999  1.2922  0.9941  0.9743
  0.9743  0.8265  0.7102  0.7102  0.7158  0.6823  0.6394  0.6340  0.6036

 Free energy of the ion-electron system (eV)
  ---------------------------------------------------
  alpha Z        PSCENC =         0.00241580
  Ewald energy   TEWEN  =         1.45716956
  -Hartree energ DENC   =       -18.15847473
  -exchange      EXHF   =         0.00000000
  -V(xc)+E(xc)   XCENC  =         4.67201405
  PAW double counting   =         4.27385946       -4.29416950
  entropy T*S    EENTRO =        -0.00000000
  eigenvalues    EBANDS =       -15.16169157
  atomic energy  EATOM  =        24.97394176
  Solvation  Ediel_sol  =         0.00000000
  ---------------------------------------------------
  free energy    TOTEN  =        -2.23493517 eV

  energy without entropy =       -2.23493517  energy(sigma->0) =       -2.23493517


--------------------------------------------------------------------------------------------------------




--------------------------------------- Iteration      9(  21)  ---------------------------------------


    POTLOK:  cpu time      0.2061: real time      0.1888
    SETDIJ:  cpu time      1.6015: real time      1.4172
    EDDIAG:  cpu time      0.0364: real time      0.0125
  RMM-DIIS:  cpu time      0.0220: real time      0.0218
    ORTHCH:  cpu time      0.0048: real time      0.0048
       DOS:  cpu time      0.0003: real time      0.0003
    CHARGE:  cpu time      1.8015: real time      1.6314
    MIXING:  cpu time      0.3157: real time      0.1232
    --------------------------------------------
      LOOP:  cpu time      3.9884: real time      3.4002

 eigenvalue-minimisations  :    28
 total energy-change (2. order) :-0.1942505E-05  ( 0.0000000E+00)
 number of electron       2.0000000 magnetization       2.0000000
 augmentation part        0.0304948 magnetization       0.0304948

 Broyden mixing:
  rms(total) = 0.53838E-06    rms(broyden)= 0.17812E-06
  rms(prec ) = 0.20771E-06
  weight for this iteration     100.00
  WARNING: grid for Broyden might be to small

 eigenvalues of (default mixing * dielectric matrix)
  average eigenvalue GAMMA=   1.9454
  9.9951  4.8912  4.0623  2.7729  2.6517  2.0911  1.6092  1.3462  1.1429  0.9914
  0.9914  0.8776  0.7995  0.7334  0.7012  0.7012  0.6666  0.6106  0.6288  0.6429

 Free energy of the ion-electron system (eV)
  ---------------------------------------------------
  alpha Z        PSCENC =         0.00241580
  Ewald energy   TEWEN  =         1.45716956
  -Hartree energ DENC   =       -18.15847612
  -exchange      EXHF   =         0.00000000
  -V(xc)+E(xc)   XCENC  =         4.67201474
  PAW double counting   =         4.27385761       -4.29416759
  entropy T*S    EENTRO =        -0.00000000
  eigenvalues    EBANDS =       -15.16169287
  atomic energy  EATOM  =        24.97394176
  Solvation  Ediel_sol  =         0.00000000
  ---------------------------------------------------
  free energy    TOTEN  =        -2.23493711 eV

  energy without entropy =       -2.23493711  energy(sigma->0) =       -2.23493711


--------------------------------------------------------------------------------------------------------




--------------------------------------- Iteration      9(  22)  ---------------------------------------


    POTLOK:  cpu time      0.1993: real time      0.1910
    SETDIJ:  cpu time      1.5908: real time      1.3983
    EDDIAG:  cpu time      0.0285: real time      0.0118
  RMM-DIIS:  cpu time      0.0213: real time      0.0211
    ORTHCH:  cpu time      0.0047: real time      0.0047
       DOS:  cpu time      0.0003: real time      0.0003
    CHARGE:  cpu time      1.7849: real time      1.6185
    MIXING:  cpu time      0.2966: real time      0.1196
    --------------------------------------------
      LOOP:  cpu time      3.9274: real time      3.3656

 eigenvalue-minimisations  :    28
 total energy-change (2. order) :-0.1235109E-05  ( 0.0000000E+00)
 number of electron       2.0000000 magnetization       2.0000000
 augmentation part        0.0304948 magnetization       0.0304948

 Broyden mixing:
  rms(total) = 0.51357E-06    rms(broyden)= 0.75039E-07
  rms(prec ) = 0.95357E-07
  weight for this iteration     100.00
  WARNING: grid for Broyden might be to small

 eigenvalues of (default mixing * dielectric matrix)
  average eigenvalue GAMMA=   1.9562
  9.9991  5.0791  4.5072  2.9524  2.6445  2.2624  1.6687  1.4404  1.2267  1.0551
  0.9851  0.9851  0.8409  0.7700  0.7052  0.7052  0.7061  0.6707  0.6071  0.6387
  0.6311

 Free energy of the ion-electron system (eV)
  ---------------------------------------------------
  alpha Z        PSCENC =         0.00241580
  Ewald energy   TEWEN  =         1.45716956
  -Hartree energ DENC   =       -18.15847733
  -exchange      EXHF   =         0.00000000
  -V(xc)+E(xc)   XCENC  =         4.67201514
  PAW double counting   =         4.27385963       -4.29416965
  entropy T*S    EENTRO =        -0.00000000
  eigenvalues    EBANDS =       -15.16169326
  atomic energy  EATOM  =        24.97394176
  Solvation  Ediel_sol  =         0.00000000
  ---------------------------------------------------
  free energy    TOTEN  =        -2.23493834 eV

  energy without entropy =       -2.23493834  energy(sigma->0) =       -2.23493834


--------------------------------------------------------------------------------------------------------




--------------------------------------- Iteration      9(  23)  ---------------------------------------


    POTLOK:  cpu time      0.2074: real time      0.1904
    SETDIJ:  cpu time      1.5866: real time      1.4074
    EDDIAG:  cpu time      0.0403: real time      0.0131
  RMM-DIIS:  cpu time      0.0218: real time      0.0215
    ORTHCH:  cpu time      0.0046: real time      0.0046
       DOS:  cpu time      0.0003: real time      0.0003
    --------------------------------------------
      LOOP:  cpu time      1.8599: real time      1.6373

 eigenvalue-minimisations  :    27
 total energy-change (2. order) :-0.2303352E-06  ( 0.0000000E+00)
 number of electron       2.0000000 magnetization       2.0000000
 augmentation part        0.0304948 magnetization       0.0304948

 Free energy of the ion-electron system (eV)
  ---------------------------------------------------
  alpha Z        PSCENC =         0.00241580
  Ewald energy   TEWEN  =         1.45716956
  -Hartree energ DENC   =       -18.15847794
  -exchange      EXHF   =         0.00000000
  -V(xc)+E(xc)   XCENC  =         4.67201487
  PAW double counting   =         4.27385069       -4.29416046
  entropy T*S    EENTRO =        -0.00000000
  eigenvalues    EBANDS =       -15.16169286
  atomic energy  EATOM  =        24.97394176
  Solvation  Ediel_sol  =         0.00000000
  ---------------------------------------------------
  free energy    TOTEN  =        -2.23493857 eV

  energy without entropy =       -2.23493857  energy(sigma->0) =       -2.23493857


--------------------------------------------------------------------------------------------------------




 average (electrostatic) potential at core
  the test charge radii are     0.5201
  (the norm of the test charge is              1.0000)
       1 -14.6486       2 -14.6486
 
 
 
 E-fermi :  -6.3192     XC(G=0):  -0.0572     alpha+bet : -0.0137

 Fermi energy:        -6.3192050858

 spin component 1

 k-point     1 :       0.0000    0.0000    0.0000
  band No.  band energies     occupation 
      1      -7.6853      1.00000
      2      -7.4764      1.00000
      3      -0.1892      0.00000
      4       0.0217      0.00000
      5       0.0786      0.00000
      6       0.3910      0.00000
      7       0.3968      0.00000
      8       0.4271      0.00000
 Fermi energy:        -6.3192050858

 spin component 2

 k-point     1 :       0.0000    0.0000    0.0000
  band No.  band energies     occupation 
      1       0.0307      0.00000
      2       0.1615      0.00000
      3       0.2029      0.00000
      4       0.6052      0.00000
      5       0.6134      0.00000
      6       1.2217      0.00000
      7       1.2588      0.00000
      8       1.3117      0.00000


--------------------------------------------------------------------------------------------------------


 soft charge-density along one line, spin component            1
         0         1         2         3         4         5         6         7         8         9
 total charge-density along one line
 
 soft charge-density along one line, spin component            2
         0         1         2         3         4         5         6         7         8         9
 total charge-density along one line
 
 pseudopotential strength for first ion, spin component:            1
 -2.402  -4.147  -0.000   0.000  -0.000
 -4.147  -7.077  -0.000  -0.000   0.000
 -0.000  -0.000  -0.339  -0.000   0.000
  0.000  -0.000  -0.000  -0.339  -0.000
 -0.000   0.000   0.000  -0.000  -0.339
 pseudopotential strength for first ion, spin component:            2
 -0.602  -0.828   0.000   0.000   0.000
 -0.828  -0.973   0.000   0.000   0.000
  0.000   0.000  -0.425   0.000  -0.000
  0.000   0.000   0.000  -0.425   0.000
  0.000   0.000  -0.000   0.000  -0.425
 total augmentation occupancy for first ion, spin component:            1
  0.933   0.047   0.000  -0.000   0.000
  0.047   0.002   0.000  -0.000   0.000
  0.000   0.000   0.000  -0.000   0.000
 -0.000  -0.000  -0.000   0.000  -0.000
  0.000   0.000   0.000  -0.000   0.000
 total augmentation occupancy for first ion, spin component:            2
  0.933   0.047   0.000  -0.000   0.000
  0.047   0.002   0.000  -0.000   0.000
  0.000   0.000   0.000  -0.000   0.000
 -0.000  -0.000  -0.000   0.000  -0.000
  0.000   0.000   0.000  -0.000   0.000


------------------------ aborting loop because EDIFF is reached ----------------------------------------





 total charge

# of ion       s       p       d       tot
------------------------------------------
    1        0.380   0.000   0.000   0.380
    2        0.380   0.000   0.000   0.380
--------------------------------------------------
tot          0.760   0.000   0.000   0.760



 magnetization (x)

# of ion       s       p       d       tot
------------------------------------------
    1        0.380   0.000   0.000   0.380
    2        0.380   0.000   0.000   0.380
--------------------------------------------------
tot          0.760   0.000   0.000   0.760
 
    CHARGE:  cpu time      1.8463: real time      1.6822
    FORLOC:  cpu time      0.0160: real time      0.0160
    FORNL :  cpu time      9.4422: real time      8.4404
    STRESS:  cpu time     30.6540: real time     27.0241
    FORHAR:  cpu time      0.0444: real time      0.0205
    MIXING:  cpu time      0.3336: real time      0.1390
    OFIELD:  cpu time      0.0005: real time      0.0001

  FORCE on cell =-STRESS in cart. coord.  units (eV):
  Direction    XX          YY          ZZ          XY          YZ          ZX
  --------------------------------------------------------------------------------------
  Alpha Z     0.00242     0.00242     0.00242
  Ewald       2.67259     2.26175    -3.47718     0.00430    -0.01497    -0.95352
  Hartree     8.33538     7.97278     1.85032     0.00363    -0.01273    -0.80974
  E(xc)      -5.46931    -5.46955    -5.46697     0.00000    -0.00001    -0.00079
  Local     -18.45038   -17.67714    -5.81403    -0.00792     0.02770     1.76272
  n-local    -3.67687    -3.67693    -3.67697    -0.00000     0.00000     0.00001
  augment     0.21099     0.21099     0.21098    -0.00000    -0.00000     0.00000
  Kinetic    16.35717    16.35584    16.36989     0.00002    -0.00007    -0.00427
  Fock        0.00000     0.00000     0.00000     0.00000     0.00000     0.00000
  -------------------------------------------------------------------------------------
  Total      -0.01801    -0.01984    -0.00152     0.00003    -0.00009    -0.00559
  in kB      -0.00715    -0.00788    -0.00060     0.00001    -0.00003    -0.00222
  external pressure =       -0.01 kB  Pullay stress =        0.00 kB


 VOLUME and BASIS-vectors are now :
 -----------------------------------------------------------------------------
  energy-cutoff  :      520.00
  volume of cell :     4033.72
      direct lattice vectors                 reciprocal lattice vectors
    11.103800000  0.000000000  0.000000000     0.090059259  0.000000000  0.000000000
     0.000000000 11.200200000  0.000000000     0.000000000  0.089284120  0.000000000
     0.000000000  0.000000000 32.434600000     0.000000000  0.000000000  0.030831273

  length of vectors
    11.103800000 11.200200000 32.434600000     0.090059259  0.089284120  0.030831273


 FORCES acting on ions
    electron-ion (+dipol)            ewald-force                    non-local-force                 convergence-correction
 -----------------------------------------------------------------------------------------------
   -.270E+00 -.424E-02 0.117E+01   0.272E+00 0.426E-02 -.117E+01   0.201E-03 0.970E-06 -.642E-03   0.450E-07 0.114E-08 -.136E-09
   0.270E+00 0.424E-02 -.117E+01   -.272E+00 -.426E-02 0.117E+01   -.201E-03 -.970E-06 0.642E-03   -.450E-07 -.114E-08 0.136E-09
 -----------------------------------------------------------------------------------------------
   0.185E-07 -.695E-08 -.820E-07   0.000E+00 -.347E-17 0.000E+00   -.271E-19 0.000E+00 0.000E+00   -.413E-12 -.108E-11 0.799E-13
 
 
 POSITION                                       TOTAL-FORCE (eV/Angst)
 -----------------------------------------------------------------------------------
      5.85950      7.09067     14.97478         0.001618      0.000023     -0.005249
      4.78538      7.07400     18.48638        -0.001618     -0.000023      0.005249
 -----------------------------------------------------------------------------------
    total drift:                                0.000000     -0.000000     -0.000000


--------------------------------------------------------------------------------------------------------



  FREE ENERGIE OF THE ION-ELECTRON SYSTEM (eV)
  ---------------------------------------------------
  free  energy   TOTEN  =        -2.23493857 eV

  energy  without entropy=       -2.23493857  energy(sigma->0) =       -2.23493857
 
 d Force = 0.1294631E-02[ 0.904E-03, 0.169E-02]  d Energy = 0.1263207E-02 0.314E-04
 d Force = 0.2053252E+00[ 0.197E+00, 0.213E+00]  d Ewald  = 0.2051346E+00 0.191E-03


--------------------------------------------------------------------------------------------------------


    POTLOK:  cpu time      1.8792: real time      1.6494


--------------------------------------------------------------------------------------------------------




--------------------------------------------------------------------------------------------------------


  
 reached required accuracy - stopping structural energy minimisation
 writing wavefunctions
     LOOP+:  cpu time    135.5207: real time    115.9777
    4ORBIT:  cpu time      0.0000: real time      0.0000



 total charge

# of ion       s       p       d       tot
------------------------------------------
    1        0.380   0.000   0.000   0.380
    2        0.380   0.000   0.000   0.380
--------------------------------------------------
tot          0.760   0.000   0.000   0.760



 magnetization (x)

# of ion       s       p       d       tot
------------------------------------------
    1        0.380   0.000   0.000   0.380
    2        0.380   0.000   0.000   0.380
--------------------------------------------------
tot          0.760   0.000   0.000   0.760
 

 total amount of memory used by VASP MPI-rank0   962526. kBytes
=======================================================================

   base      :      30000. kBytes
   nonl-proj :       7818. kBytes
   fftplans  :     521602. kBytes
   grid      :     396152. kBytes
   one-center:          4. kBytes
   wavefun   :       6950. kBytes
 
  
  
 General timing and accounting informations for this job:
 ========================================================
  
                  Total CPU time used (sec):     1259.266
                            User time (sec):     1106.640
                          System time (sec):      152.627
                         Elapsed time (sec):     1071.539
  
                   Maximum memory used (kb):     3949084.
                   Average memory used (kb):          N/A
  
                          Minor page faults:      2200574
                          Major page faults:          111
                 Voluntary context switches:       225311
