 vasp.6.3.2 27Jun22 (build Sep  5 2022 18:50:32) complex                         
 executed on              LinuxNV date 2023.01.26  05:24:08
 running    4 mpi-ranks, with   20 threads/rank
 distrk:  each k-point on    4 cores,    1 groups
 distr:  one band on NCORE=   1 cores,    4 groups


--------------------------------------------------------------------------------------------------------


 INCAR:
   LORBIT = 11
   LREAL = .FALSE.       (Projection operators: automatic)
   ENCUT = 520        (Cut-off energy for plane wave basis set, in eV)
   PREC = Accurate   (Precision level: Normal or Accurate, set Accurate when perform structure lattice relaxation calculation)
   LWAVE = .TRUE.        (Write WAVECAR or not)
   LCHARG = .TRUE.        (Write CHGCAR or not)
   ADDGRID = .TRUE.        (Increase grid, helps GGA convergence)
   ALGO = Fast
   IVDW = 12
   ISMEAR = -1            (Gaussian smearing, metals:1)
   SIGMA = 0.05         (Smearing value in eV, metals:0.2)
   NELM = 150           (Max electronic SCF steps)
   NELMIN = 6            (Min electronic SCF steps)
   EDIFF = 1E-04        (SCF energy convergence, in eV)
   NSW = 100          (Max ionic steps)
   IBRION = 2            (Algorithm: 0-MD, 1-Quasi-New, 2-CG)
   ISIF = 2            (Stress/relaxation: 2-Ions, 3-Shape/Ions/V, 4-Shape/Ions)
   EDIFFG = -1E-02        (Ionic convergence, eV/AA)

 POTCAR:    PAW_PBE H 15Jun2001                   
 POTCAR:    PAW_PBE H 15Jun2001                   
   SHA256 =  030f79b5d3ab3cf0e668861823c8fb652ff669f3e15e46930bd03bfd63a607b6 H/POTCAR              
   COPYR  = (c) Copyright 15Jun2001 Georg Kresse                                                    
   COPYR  = This file is part of the software VASP. Any use, copying, and all other rights are regul
   COPYR  = If you do not have a valid VASP license, you may not use, copy or distribute this file. 
   VRHFIN =H: ultrasoft test                                                                        
   LEXCH  = PE                                                                                      
   EATOM  =    12.4884 eV,    0.9179 Ry                                                             
                                                                                                    
   TITEL  = PAW_PBE H 15Jun2001                                                                     
   LULTRA =        F    use ultrasoft PP ?                                                          
   IUNSCR =        0    unscreen: 0-lin 1-nonlin 2-no                                               
   RPACOR =    0.000    partial core radius                                                         
   POMASS =    1.000; ZVAL   =    1.000    mass and valenz                                          
   RCORE  =    1.100    outmost cutoff radius                                                       
   RWIGS  =    0.700; RWIGS  =    0.370    wigner-seitz radius (au A)                               
   ENMAX  =  250.000; ENMIN  =  200.000 eV                                                          
   RCLOC  =    0.701    cutoff for local pot                                                        
   LCOR   =        T    correct aug charges                                                         
   LPAW   =        T    paw PP                                                                      
   EAUG   =  400.000                                                                                
   RMAX   =    1.123    core radius for proj-oper                                                   
   RAUG   =    1.200    factor for augmentation sphere                                              
   RDEP   =    1.112    radius for radial grids                                                     
   RDEPT  =    0.926    core radius for aug-charge                                                  
                                                                                                    
   Atomic configuration                                                                             
    2 entries                                                                                       
     n  l   j            E        occ.                                                              
     1  0  0.50        -6.4927   1.0000                                                             
     2  1  0.50        -3.4015   0.0000                                                             
   Description                                                                                      
     l       E           TYP  RCUT    TYP  RCUT                                                     
     0     -6.4927494     23  1.100                                                                 
     0      6.8029130     23  1.100                                                                 
     1     -4.0817478     23  1.100                                                                 
  local pseudopotential read in
  atomic valenz-charges read in
  non local Contribution for L=            0  read in
    real space projection operators read in
  non local Contribution for L=            0  read in
    real space projection operators read in
  non local Contribution for L=            1  read in
    real space projection operators read in
    PAW grid and wavefunctions read in
 
   number of l-projection  operators is LMAX  =            3
   number of lm-projection operators is LMMAX =            5
 
  PAW_PBE H 15Jun2001                   :
 energy of atom  1       EATOM=  -12.4884
 kinetic energy error for atom=    0.0014 (will be added to EATOM!!)
 
 
 POSCAR: cif2pos.py
  positions in direct lattice
  velocities in cartesian coordinates
 exchange correlation table for  LEXCH =        8
   RHO(1)=    0.500       N(1)  =     2000
   RHO(2)=  100.500       N(2)  =     4000
 


--------------------------------------------------------------------------------------------------------


 ion  position               nearest neighbor table
   1  0.528  0.633  0.462-
   2  0.431  0.632  0.570-
 
  LATTYP: Found a simple orthorhombic cell.
 ALAT       =    11.1038000000
 B/A-ratio  =     1.0086817126
 C/A-ratio  =     2.9210360417
  
  Lattice vectors:
  
 A1 = (  11.1038000000,   0.0000000000,   0.0000000000)
 A2 = (   0.0000000000,  11.2002000000,   0.0000000000)
 A3 = (   0.0000000000,   0.0000000000,  32.4346000000)


Analysis of symmetry for initial positions (statically):
=====================================================================
 Subroutine PRICEL returns:
 Original cell was already a primitive cell.
 

 Routine SETGRP: Setting up the symmetry group for a 
 simple orthorhombic supercell.


 Subroutine GETGRP returns: Found  2 space group operations
 (whereof  1 operations were pure point group operations)
 out of a pool of  8 trial point group operations.


The static configuration has the point symmetry C_1 .
 The point group associated with its full space group is S_2 .


Analysis of symmetry for dynamics (positions and initial velocities):
=====================================================================
 Subroutine PRICEL returns:
 Original cell was already a primitive cell.
 

 Routine SETGRP: Setting up the symmetry group for a 
 simple orthorhombic supercell.


 Subroutine GETGRP returns: Found  2 space group operations
 (whereof  1 operations were pure point group operations)
 out of a pool of  8 trial point group operations.


The dynamic configuration has the point symmetry C_1 .
 The point group associated with its full space group is S_2 .


 Subroutine INISYM returns: Found  2 space group operations
 (whereof  1 operations are pure point group operations),
 and found     1 'primitive' translations


----------------------------------------------------------------------------------------

                                     Primitive cell                                     

  volume of cell :    4033.7219

  direct lattice vectors                    reciprocal lattice vectors
    11.103800000  0.000000000  0.000000000     0.090059259  0.000000000  0.000000000
     0.000000000 11.200200000  0.000000000     0.000000000  0.089284120  0.000000000
     0.000000000  0.000000000 32.434600000     0.000000000  0.000000000  0.030831273

  length of vectors
    11.103800000 11.200200000 32.434600000     0.090059259  0.089284120  0.030831273

  position of ions in fractional coordinates (direct lattice)
     0.527701828  0.633084560  0.461691413
     0.430968172  0.631595440  0.569958587

  ion indices of the primitive-cell ions
   primitive index   ion index
                 1           1
                 2           2

----------------------------------------------------------------------------------------

 
 
 KPOINTS: K-Spacing Value to Generate K-Mesh: 0.03

Automatic generation of k-mesh.
 Grid dimensions read from file:
 generate k-points for:    1    1    1

 Generating k-lattice:

  Cartesian coordinates                     Fractional coordinates (reciprocal lattice)
     0.090059259  0.000000000  0.000000000     1.000000000  0.000000000  0.000000000
     0.000000000  0.089284120  0.000000000     0.000000000  1.000000000  0.000000000
     0.000000000  0.000000000  0.030831273     0.000000000  0.000000000  1.000000000

  Length of vectors
     0.090059259  0.089284120  0.030831273

  Shift w.r.t. Gamma in fractional coordinates (k-lattice)
     0.000000000  0.000000000  0.000000000

 
 Subroutine IBZKPT returns following result:
 ===========================================
 
 Found      1 irreducible k-points:
 
 Following reciprocal coordinates:
            Coordinates               Weight
  0.000000  0.000000  0.000000      1.000000
 
 Following cartesian coordinates:
            Coordinates               Weight
  0.000000  0.000000  0.000000      1.000000
 


--------------------------------------------------------------------------------------------------------




 Dimension of arrays:
   k-points           NKPTS =      1   k-points in BZ     NKDIM =      1   number of bands    NBANDS=      8
   number of dos      NEDOS =    301   number of ions     NIONS =      2
   non local maximal  LDIM  =      3   non local SUM 2l+1 LMDIM =      5
   total plane-waves  NPLWV = ******
   max r-space proj   IRMAX =      1   max aug-charges    IRDMAX=  17202
   dimension x,y,z NGX =    84 NGY =   84 NGZ =  250
   dimension x,y,z NGXF=   168 NGYF=  168 NGZF=  500
   support grid    NGXF=   336 NGYF=  336 NGZF= 1000
   ions per type =               2
   NGX,Y,Z   is equivalent  to a cutoff of  12.58, 12.47, 12.81 a.u.
   NGXF,Y,Z  is equivalent  to a cutoff of  25.15, 24.94, 25.63 a.u.

 SYSTEM =  unknown system                          
 POSCAR =  cif2pos.py                              

 Startparameter for this run:
   NWRITE =      2    write-flag & timer
   PREC   = accura    normal or accurate (medium, high low for compatibility)
   ISTART =      0    job   : 0-new  1-cont  2-samecut
   ICHARG =      2    charge: 1-file 2-atom 10-const
   ISPIN  =      1    spin polarized calculation?
   LNONCOLLINEAR =      F non collinear calculations
   LSORBIT =      F    spin-orbit coupling
   INIWAV =      1    electr: 0-lowe 1-rand  2-diag
   LASPH  =      F    aspherical Exc in radial PAW
 Electronic Relaxation 1
   ENCUT  =  520.0 eV  38.22 Ry    6.18 a.u.  20.65 20.82 60.31*2*pi/ulx,y,z
   ENINI  =  520.0     initial cutoff
   ENAUG  =  400.0 eV  augmentation charge cutoff
   NELM   =    150;   NELMIN=  6; NELMDL= -5     # of ELM steps 
   EDIFF  = 0.1E-03   stopping-criterion for ELM
   LREAL  =      F    real-space projection
   NLSPLINE    = F    spline interpolate recip. space projectors
   LCOMPAT=      F    compatible to vasp.4.4
   GGA_COMPAT  = T    GGA compatible to vasp.4.4-vasp.4.6
   LMAXPAW     = -100 max onsite density
   LMAXMIX     =    2 max onsite mixed and CHGCAR
   VOSKOWN=      0    Vosko Wilk Nusair interpolation
   ROPT   =    0.00000
 Ionic relaxation
   EDIFFG = -.1E-01   stopping-criterion for IOM
   NSW    =    100    number of steps for IOM
   NBLOCK =      1;   KBLOCK =    100    inner block; outer block 
   IBRION =      2    ionic relax: 0-MD 1-quasi-New 2-CG
   NFREE  =      1    steps in history (QN), initial steepest desc. (CG)
   ISIF   =      2    stress and relaxation
   IWAVPR =     11    prediction:  0-non 1-charg 2-wave 3-comb
   ISYM   =      2    0-nonsym 1-usesym 2-fastsym
   LCORR  =      T    Harris-Foulkes like correction to forces

   POTIM  = 0.5000    time-step for ionic-motion
   TEIN   =    0.0    initial temperature
   TEBEG  =    0.0;   TEEND  =   0.0 temperature during run
   SMASS  =  -3.00    Nose mass-parameter (am)
   estimated Nose-frequenzy (Omega)   =  0.10E-29 period in steps = 0.13E+47 mass=  -0.282E-26a.u.
   SCALEE = 1.0000    scale energy and forces
   NPACO  =    256;   APACO  = 10.0  distance and # of slots for P.C.
   PSTRESS=    0.0 pullay stress

  Mass of Ions in am
   POMASS =   1.00
  Ionic Valenz
   ZVAL   =   1.00
  Atomic Wigner-Seitz radii
   RWIGS  =  -1.00
  virtual crystal weights 
   VCA    =   1.00
   NELECT =       2.0000    total number of electrons
   NUPDOWN=      -1.0000    fix difference up-down

 DOS related values:
   EMIN   =  10.00;   EMAX   =-10.00  energy-range for DOS
   EFERMI =   0.00
   ISMEAR =    -1;   SIGMA  =   0.05  broadening in eV -4-tet -1-fermi 0-gaus

 Electronic relaxation 2 (details)
   IALGO  =     68    algorithm
   LDIAG  =      T    sub-space diagonalisation (order eigenvalues)
   LSUBROT=      F    optimize rotation matrix (better conditioning)
   TURBO    =      0    0=normal 1=particle mesh
   IRESTART =      0    0=no restart 2=restart with 2 vectors
   NREBOOT  =      0    no. of reboots
   NMIN     =      0    reboot dimension
   EREF     =   0.00    reference energy to select bands
   IMIX   =      4    mixing-type and parameters
     AMIX     =   0.40;   BMIX     =  1.00
     AMIX_MAG =   1.60;   BMIX_MAG =  1.00
     AMIN     =   0.10
     WC   =   100.;   INIMIX=   1;  MIXPRE=   1;  MAXMIX= -45

 Intra band minimization:
   WEIMIN = 0.0010     energy-eigenvalue tresh-hold
   EBREAK =  0.31E-05  absolut break condition
   DEPER  =   0.30     relativ break condition  

   TIME   =   0.40     timestep for ELM

  volume/ion in A,a.u.               =    2016.86     13610.45
  Fermi-wavevector in a.u.,A,eV,Ry     =   0.129573  0.244858  0.228432  0.016789
  Thomas-Fermi vector in A             =   0.767559
 
 Write flags
   LWAVE        =      T    write WAVECAR
   LDOWNSAMPLE  =      F    k-point downsampling of WAVECAR
   LCHARG       =      T    write CHGCAR
   LVTOT        =      F    write LOCPOT, total local potential
   LVHAR        =      F    write LOCPOT, Hartree potential only
   LELF         =      F    write electronic localiz. function (ELF)
   LORBIT       =     11    0 simple, 1 ext, 2 COOP (PROOUT), +10 PAW based schemes


 Dipole corrections
   LMONO  =      F    monopole corrections only (constant potential shift)
   LDIPOL =      F    correct potential (dipole corrections)
   IDIPOL =      0    1-x, 2-y, 3-z, 4-all directions 
   EPSILON=  1.0000000 bulk dielectric constant

 Exchange correlation treatment:
   GGA     =    --    GGA type
   LEXCH   =     8    internal setting for exchange type
   LIBXC   =     F    Libxc                    
   VOSKOWN =     0    Vosko Wilk Nusair interpolation
   LHFCALC =     F    Hartree Fock is set to
   LHFONE  =     F    Hartree Fock one center treatment
   AEXX    =    0.0000 exact exchange contribution

 Linear response parameters
   LEPSILON=     F    determine dielectric tensor
   LRPA    =     F    only Hartree local field effects (RPA)
   LNABLA  =     F    use nabla operator in PAW spheres
   LVEL    =     F    velocity operator in full k-point grid
   CSHIFT  =0.1000    complex shift for real part using Kramers Kronig
   OMEGAMAX=  -1.0    maximum frequency
   DEG_THRESHOLD= 0.2000000E-02 threshold for treating states as degnerate
   RTIME   =   -0.100 relaxation time in fs
  (WPLASMAI=    0.000 imaginary part of plasma frequency in eV, 0.658/RTIME)
   DFIELD  = 0.0000000 0.0000000 0.0000000 field for delta impulse in time
 
  Optional k-point grid parameters
   LKPOINTS_OPT  =     F    use optional k-point grid
   KPOINTS_OPT_MODE=     1    mode for optional k-point grid
 
 Orbital magnetization related:
   ORBITALMAG=     F  switch on orbital magnetization
   LCHIMAG   =     F  perturbation theory with respect to B field
   DQ        =  0.001000  dq finite difference perturbation B field
   LLRAUG    =     F  two centre corrections for induced B field



--------------------------------------------------------------------------------------------------------


 conjugate gradient relaxation of ions
 charge density and potential will be updated during run
 non-spin polarized calculation
 RMM-DIIS sequential band-by-band and
  variant of blocked Davidson during initial phase
 perform sub-space diagonalisation
    before iterative eigenvector-optimisation
 modified Broyden-mixing scheme, WC =      100.0
 initial mixing is a Kerker type mixing with AMIX =  0.4000 and BMIX =      1.0000
 Hartree-type preconditioning will be used
 using additional bands             7
 reciprocal scheme for non local part
 calculate Harris-corrections to forces 
   (improved forces if not selfconsistent)
 use gradient corrections 
 use of overlap-Matrix (Vanderbilt PP)
 Fermi-smearing in eV        SIGMA  =   0.05


--------------------------------------------------------------------------------------------------------


  energy-cutoff  :      520.00
  volume of cell :     4033.72
      direct lattice vectors                 reciprocal lattice vectors
    11.103800000  0.000000000  0.000000000     0.090059259  0.000000000  0.000000000
     0.000000000 11.200200000  0.000000000     0.000000000  0.089284120  0.000000000
     0.000000000  0.000000000 32.434600000     0.000000000  0.000000000  0.030831273

  length of vectors
    11.103800000 11.200200000 32.434600000     0.090059259  0.089284120  0.030831273


 
 k-points in units of 2pi/SCALE and weight: K-Spacing Value to Generate K-Mesh: 0.03
   0.00000000  0.00000000  0.00000000       1.000
 
 k-points in reciprocal lattice and weights: K-Spacing Value to Generate K-Mesh: 0.03
   0.00000000  0.00000000  0.00000000       1.000
 
 position of ions in fractional coordinates (direct lattice) 
   0.52770183  0.63308456  0.46169141
   0.43096817  0.63159544  0.56995859
 
 position of ions in cartesian coordinates  (Angst):
   5.85949556  7.09067369 14.97477630
   4.78538438  7.07399524 18.48637879
 


--------------------------------------------------------------------------------------------------------


 k-point   1 :   0.0000 0.0000 0.0000  plane waves:  108581

 maximum and minimum number of plane-waves per node :    108581   108581

 maximum number of plane-waves:    108581
 maximum index in each direction: 
   IXMAX=   20   IYMAX=   20   IZMAX=   60
   IXMIN=  -20   IYMIN=  -20   IZMIN=  -60


 serial   3D FFT for wavefunctions
 parallel 3D FFT for charge:
    minimum data exchange during FFTs selected (reduces bandwidth)


 total amount of memory used by VASP MPI-rank0   803365. kBytes
=======================================================================

   base      :      30000. kBytes
   nonl-proj :       7818. kBytes
   fftplans  :     521602. kBytes
   grid      :     240468. kBytes
   one-center:          2. kBytes
   wavefun   :       3475. kBytes
 
     INWAV:  cpu time      0.0063: real time      0.0007
 Broyden mixing: mesh for mixing (old mesh)
   NGX = 41   NGY = 41   NGZ =121
  (NGX  =168   NGY  =168   NGZ  =500)
  gives a total of 203401 points

 initial charge density was supplied:
 charge density of overlapping atoms calculated
 number of electron       2.0000000 magnetization 
 keeping initial charge density in first step


--------------------------------------------------------------------------------------------------------


 Maximum index for augmentation-charges          4150 (set IRDMAX)


--------------------------------------------------------------------------------------------------------


 First call to EWALD:  gamma=   0.111
 Maximum number of real-space cells 4x 4x 2
 Maximum number of reciprocal cells 2x 2x 5

    FEWALD:  cpu time      0.2324: real time      0.0431


--------------------------------------- Iteration      1(   1)  ---------------------------------------


    POTLOK:  cpu time      0.1426: real time      0.1674
    SETDIJ:  cpu time      1.0007: real time      0.7303
     EDDAV:  cpu time      0.0632: real time      0.0714
       DOS:  cpu time      0.0004: real time      0.0004
    --------------------------------------------
      LOOP:  cpu time      1.2070: real time      0.9695

 eigenvalue-minimisations  :    16
 total energy-change (2. order) : 0.4921156E+01  (-0.1073966E+02)
 number of electron       2.0000000 magnetization 
 augmentation part        2.0000000 magnetization 

 Free energy of the ion-electron system (eV)
  ---------------------------------------------------
  alpha Z        PSCENC =         0.00241580
  Ewald energy   TEWEN  =         1.45716956
  -Hartree energ DENC   =       -17.23754353
  -exchange      EXHF   =         0.00000000
  -V(xc)+E(xc)   XCENC  =         3.77960123
  PAW double counting   =         4.26805487       -4.28581044
  entropy T*S    EENTRO =        -0.00000000
  eigenvalues    EBANDS =        -8.03667370
  atomic energy  EATOM  =        24.97394176
  Solvation  Ediel_sol  =         0.00000000
  ---------------------------------------------------
  free energy    TOTEN  =         4.92115554 eV

  energy without entropy =        4.92115554  energy(sigma->0) =        4.92115554


--------------------------------------------------------------------------------------------------------




--------------------------------------- Iteration      1(   2)  ---------------------------------------


     EDDAV:  cpu time      0.0334: real time      0.0335
       DOS:  cpu time      0.0003: real time      0.0003
    --------------------------------------------
      LOOP:  cpu time      0.0336: real time      0.0337

 eigenvalue-minimisations  :    32
 total energy-change (2. order) :-0.5080162E+01  (-0.5080142E+01)
 number of electron       2.0000000 magnetization 
 augmentation part        2.0000000 magnetization 

 Free energy of the ion-electron system (eV)
  ---------------------------------------------------
  alpha Z        PSCENC =         0.00241580
  Ewald energy   TEWEN  =         1.45716956
  -Hartree energ DENC   =       -17.23754353
  -exchange      EXHF   =         0.00000000
  -V(xc)+E(xc)   XCENC  =         3.77960123
  PAW double counting   =         4.26805487       -4.28581044
  entropy T*S    EENTRO =        -0.00020393
  eigenvalues    EBANDS =       -13.11663154
  atomic energy  EATOM  =        24.97394176
  Solvation  Ediel_sol  =         0.00000000
  ---------------------------------------------------
  free energy    TOTEN  =        -0.15900622 eV

  energy without entropy =       -0.15880229  energy(sigma->0) =       -0.15890426


--------------------------------------------------------------------------------------------------------




--------------------------------------- Iteration      1(   3)  ---------------------------------------


     EDDAV:  cpu time      0.0210: real time      0.0214
       DOS:  cpu time      0.0003: real time      0.0003
    --------------------------------------------
      LOOP:  cpu time      0.0212: real time      0.0216

 eigenvalue-minimisations  :    16
 total energy-change (2. order) :-0.1129110E+00  (-0.9987892E-01)
 number of electron       2.0000000 magnetization 
 augmentation part        2.0000000 magnetization 

 Free energy of the ion-electron system (eV)
  ---------------------------------------------------
  alpha Z        PSCENC =         0.00241580
  Ewald energy   TEWEN  =         1.45716956
  -Hartree energ DENC   =       -17.23754353
  -exchange      EXHF   =         0.00000000
  -V(xc)+E(xc)   XCENC  =         3.77960123
  PAW double counting   =         4.26805487       -4.28581044
  entropy T*S    EENTRO =        -0.04745242
  eigenvalues    EBANDS =       -13.18229407
  atomic energy  EATOM  =        24.97394176
  Solvation  Ediel_sol  =         0.00000000
  ---------------------------------------------------
  free energy    TOTEN  =        -0.27191725 eV

  energy without entropy =       -0.22446483  energy(sigma->0) =       -0.24819104


--------------------------------------------------------------------------------------------------------




--------------------------------------- Iteration      1(   4)  ---------------------------------------


     EDDAV:  cpu time      0.0210: real time      0.0214
       DOS:  cpu time      0.0003: real time      0.0003
    --------------------------------------------
      LOOP:  cpu time      0.0213: real time      0.0217

 eigenvalue-minimisations  :    16
 total energy-change (2. order) :-0.2483076E-02  (-0.2426157E-02)
 number of electron       2.0000000 magnetization 
 augmentation part        2.0000000 magnetization 

 Free energy of the ion-electron system (eV)
  ---------------------------------------------------
  alpha Z        PSCENC =         0.00241580
  Ewald energy   TEWEN  =         1.45716956
  -Hartree energ DENC   =       -17.23754353
  -exchange      EXHF   =         0.00000000
  -V(xc)+E(xc)   XCENC  =         3.77960123
  PAW double counting   =         4.26805487       -4.28581044
  entropy T*S    EENTRO =        -0.05061529
  eigenvalues    EBANDS =       -13.18161428
  atomic energy  EATOM  =        24.97394176
  Solvation  Ediel_sol  =         0.00000000
  ---------------------------------------------------
  free energy    TOTEN  =        -0.27440032 eV

  energy without entropy =       -0.22378503  energy(sigma->0) =       -0.24909268


--------------------------------------------------------------------------------------------------------




--------------------------------------- Iteration      1(   5)  ---------------------------------------


     EDDAV:  cpu time      0.0330: real time      0.0331
       DOS:  cpu time      0.0003: real time      0.0002
    CHARGE:  cpu time      0.9051: real time      0.8447
    MIXING:  cpu time      0.1712: real time      0.0440
    --------------------------------------------
      LOOP:  cpu time      1.1098: real time      0.9221

 eigenvalue-minimisations  :    32
 total energy-change (2. order) :-0.1847698E-04  (-0.1847481E-04)
 number of electron       2.0000000 magnetization 
 augmentation part        0.0263258 magnetization 

 Broyden mixing:
  rms(total) = 0.21733E-01    rms(broyden)= 0.21709E-01
  rms(prec ) = 0.23311E-01
  weight for this iteration     100.00

 Free energy of the ion-electron system (eV)
  ---------------------------------------------------
  alpha Z        PSCENC =         0.00241580
  Ewald energy   TEWEN  =         1.45716956
  -Hartree energ DENC   =       -17.23754353
  -exchange      EXHF   =         0.00000000
  -V(xc)+E(xc)   XCENC  =         3.77960123
  PAW double counting   =         4.26805487       -4.28581044
  entropy T*S    EENTRO =        -0.05063777
  eigenvalues    EBANDS =       -13.18161028
  atomic energy  EATOM  =        24.97394176
  Solvation  Ediel_sol  =         0.00000000
  ---------------------------------------------------
  free energy    TOTEN  =        -0.27441880 eV

  energy without entropy =       -0.22378103  energy(sigma->0) =       -0.24909992


--------------------------------------------------------------------------------------------------------




--------------------------------------- Iteration      1(   6)  ---------------------------------------


    POTLOK:  cpu time      0.1103: real time      0.0952
    SETDIJ:  cpu time      0.8267: real time      0.7220
    EDDIAG:  cpu time      0.0363: real time      0.0098
  RMM-DIIS:  cpu time      0.0151: real time      0.0677
    ORTHCH:  cpu time      0.0022: real time      0.0022
       DOS:  cpu time      0.0003: real time      0.0003
    CHARGE:  cpu time      0.8994: real time      0.8174
    MIXING:  cpu time      0.1936: real time      0.1224
    --------------------------------------------
      LOOP:  cpu time      2.0839: real time      1.8371

 eigenvalue-minimisations  :    16
 total energy-change (2. order) : 0.8296925E-03  (-0.5362810E-04)
 number of electron       2.0000000 magnetization 
 augmentation part        0.0263861 magnetization 

 Broyden mixing:
  rms(total) = 0.13426E-01    rms(broyden)= 0.13424E-01
  rms(prec ) = 0.14649E-01
  weight for this iteration     100.00

 eigenvalues of (default mixing * dielectric matrix)
  average eigenvalue GAMMA=   2.4626
  2.4626

 Free energy of the ion-electron system (eV)
  ---------------------------------------------------
  alpha Z        PSCENC =         0.00241580
  Ewald energy   TEWEN  =         1.45716956
  -Hartree energ DENC   =       -17.14119043
  -exchange      EXHF   =         0.00000000
  -V(xc)+E(xc)   XCENC  =         3.75381407
  PAW double counting   =         4.17849164       -4.19582311
  entropy T*S    EENTRO =        -0.05097090
  eigenvalues    EBANDS =       -13.25143751
  atomic energy  EATOM  =        24.97394176
  Solvation  Ediel_sol  =         0.00000000
  ---------------------------------------------------
  free energy    TOTEN  =        -0.27358911 eV

  energy without entropy =       -0.22261821  energy(sigma->0) =       -0.24810366


--------------------------------------------------------------------------------------------------------




--------------------------------------- Iteration      1(   7)  ---------------------------------------


    POTLOK:  cpu time      0.1166: real time      0.0949
    SETDIJ:  cpu time      0.7988: real time      0.7019
    EDDIAG:  cpu time      0.0338: real time      0.0076
  RMM-DIIS:  cpu time      0.0125: real time      0.0123
    ORTHCH:  cpu time      0.0023: real time      0.0023
       DOS:  cpu time      0.0003: real time      0.0003
    CHARGE:  cpu time      0.9107: real time      0.8221
    MIXING:  cpu time      0.1855: real time      0.0627
    --------------------------------------------
      LOOP:  cpu time      2.0604: real time      1.7042

 eigenvalue-minimisations  :    16
 total energy-change (2. order) : 0.5723799E-03  (-0.1832718E-03)
 number of electron       2.0000000 magnetization 
 augmentation part        0.0265010 magnetization 

 Broyden mixing:
  rms(total) = 0.29829E-02    rms(broyden)= 0.29828E-02
  rms(prec ) = 0.35576E-02
  weight for this iteration     100.00

 eigenvalues of (default mixing * dielectric matrix)
  average eigenvalue GAMMA=   3.0703
  2.7926  3.3479

 Free energy of the ion-electron system (eV)
  ---------------------------------------------------
  alpha Z        PSCENC =         0.00241580
  Ewald energy   TEWEN  =         1.45716956
  -Hartree energ DENC   =       -16.99807729
  -exchange      EXHF   =         0.00000000
  -V(xc)+E(xc)   XCENC  =         3.71475022
  PAW double counting   =         4.05808206       -4.07484435
  entropy T*S    EENTRO =        -0.05127582
  eigenvalues    EBANDS =       -13.35517867
  atomic energy  EATOM  =        24.97394176
  Solvation  Ediel_sol  =         0.00000000
  ---------------------------------------------------
  free energy    TOTEN  =        -0.27301673 eV

  energy without entropy =       -0.22174091  energy(sigma->0) =       -0.24737882


--------------------------------------------------------------------------------------------------------




--------------------------------------- Iteration      1(   8)  ---------------------------------------


    POTLOK:  cpu time      0.1125: real time      0.0953
    SETDIJ:  cpu time      0.8067: real time      0.7020
    EDDIAG:  cpu time      0.0332: real time      0.0058
  RMM-DIIS:  cpu time      0.0124: real time      0.0123
    ORTHCH:  cpu time      0.0023: real time      0.0023
       DOS:  cpu time      0.0003: real time      0.0003
    CHARGE:  cpu time      0.9200: real time      0.8374
    MIXING:  cpu time      0.1993: real time      0.0505
    --------------------------------------------
      LOOP:  cpu time      2.0868: real time      1.7060

 eigenvalue-minimisations  :    16
 total energy-change (2. order) :-0.4735272E-03  (-0.3517804E-04)
 number of electron       2.0000000 magnetization 
 augmentation part        0.0265322 magnetization 

 Broyden mixing:
  rms(total) = 0.77343E-03    rms(broyden)= 0.77326E-03
  rms(prec ) = 0.10288E-02
  weight for this iteration     100.00

 eigenvalues of (default mixing * dielectric matrix)
  average eigenvalue GAMMA=   2.5725
  3.5397  2.0889  2.0889

 Free energy of the ion-electron system (eV)
  ---------------------------------------------------
  alpha Z        PSCENC =         0.00241580
  Ewald energy   TEWEN  =         1.45716956
  -Hartree energ DENC   =       -17.01752213
  -exchange      EXHF   =         0.00000000
  -V(xc)+E(xc)   XCENC  =         3.71550283
  PAW double counting   =         4.10424354       -4.12123639
  entropy T*S    EENTRO =        -0.05080726
  eigenvalues    EBANDS =       -13.33719795
  atomic energy  EATOM  =        24.97394176
  Solvation  Ediel_sol  =         0.00000000
  ---------------------------------------------------
  free energy    TOTEN  =        -0.27349025 eV

  energy without entropy =       -0.22268299  energy(sigma->0) =       -0.24808662


--------------------------------------------------------------------------------------------------------




--------------------------------------- Iteration      1(   9)  ---------------------------------------


    POTLOK:  cpu time      0.1120: real time      0.0958
    SETDIJ:  cpu time      0.8280: real time      0.7041
    EDDIAG:  cpu time      0.0248: real time      0.0059
  RMM-DIIS:  cpu time      0.0121: real time      0.0120
    ORTHCH:  cpu time      0.0023: real time      0.0023
       DOS:  cpu time      0.0003: real time      0.0003
    CHARGE:  cpu time      0.9079: real time      0.8194
    MIXING:  cpu time      0.2740: real time      0.0630
    --------------------------------------------
      LOOP:  cpu time      2.1612: real time      1.7028

 eigenvalue-minimisations  :    14
 total energy-change (2. order) :-0.1657073E-03  (-0.4998039E-05)
 number of electron       2.0000000 magnetization 
 augmentation part        0.0265544 magnetization 

 Broyden mixing:
  rms(total) = 0.66308E-03    rms(broyden)= 0.66296E-03
  rms(prec ) = 0.86662E-03
  weight for this iteration     100.00

 eigenvalues of (default mixing * dielectric matrix)
  average eigenvalue GAMMA=   2.6285
  3.8652  3.5355  2.3210  0.7922

 Free energy of the ion-electron system (eV)
  ---------------------------------------------------
  alpha Z        PSCENC =         0.00241580
  Ewald energy   TEWEN  =         1.45716956
  -Hartree energ DENC   =       -17.01607328
  -exchange      EXHF   =         0.00000000
  -V(xc)+E(xc)   XCENC  =         3.71445210
  PAW double counting   =         4.09210251       -4.10904804
  entropy T*S    EENTRO =        -0.05081033
  eigenvalues    EBANDS =       -13.33780604
  atomic energy  EATOM  =        24.97394176
  Solvation  Ediel_sol  =         0.00000000
  ---------------------------------------------------
  free energy    TOTEN  =        -0.27365596 eV

  energy without entropy =       -0.22284563  energy(sigma->0) =       -0.24825080


--------------------------------------------------------------------------------------------------------




--------------------------------------- Iteration      1(  10)  ---------------------------------------


    POTLOK:  cpu time      0.0977: real time      0.0962
    SETDIJ:  cpu time      0.9169: real time      0.7139
    EDDIAG:  cpu time      0.0356: real time      0.0101
  RMM-DIIS:  cpu time      0.0123: real time      0.0123
    ORTHCH:  cpu time      0.0022: real time      0.0022
       DOS:  cpu time      0.0003: real time      0.0003
    CHARGE:  cpu time      0.8964: real time      0.8197
    MIXING:  cpu time      0.2278: real time      0.0539
    --------------------------------------------
      LOOP:  cpu time      2.1896: real time      1.7085

 eigenvalue-minimisations  :    15
 total energy-change (2. order) :-0.3636977E-03  (-0.6301059E-05)
 number of electron       2.0000000 magnetization 
 augmentation part        0.0265499 magnetization 

 Broyden mixing:
  rms(total) = 0.59463E-03    rms(broyden)= 0.59462E-03
  rms(prec ) = 0.66251E-03
  weight for this iteration     100.00

 eigenvalues of (default mixing * dielectric matrix)
  average eigenvalue GAMMA=   2.5404
  4.8437  3.2138  2.5902  1.2349  0.8194

 Free energy of the ion-electron system (eV)
  ---------------------------------------------------
  alpha Z        PSCENC =         0.00241580
  Ewald energy   TEWEN  =         1.45716956
  -Hartree energ DENC   =       -17.03713792
  -exchange      EXHF   =         0.00000000
  -V(xc)+E(xc)   XCENC  =         3.71769692
  PAW double counting   =         4.09284954       -4.10982931
  entropy T*S    EENTRO =        -0.05069693
  eigenvalues    EBANDS =       -13.32042909
  atomic energy  EATOM  =        24.97394176
  Solvation  Ediel_sol  =         0.00000000
  ---------------------------------------------------
  free energy    TOTEN  =        -0.27401966 eV

  energy without entropy =       -0.22332273  energy(sigma->0) =       -0.24867119


--------------------------------------------------------------------------------------------------------




--------------------------------------- Iteration      1(  11)  ---------------------------------------


    POTLOK:  cpu time      0.1049: real time      0.0958
    SETDIJ:  cpu time      0.9306: real time      0.7238
    EDDIAG:  cpu time      0.0298: real time      0.0060
  RMM-DIIS:  cpu time      0.0130: real time      0.0128
    ORTHCH:  cpu time      0.0023: real time      0.0023
       DOS:  cpu time      0.0003: real time      0.0003
    --------------------------------------------
      LOOP:  cpu time      1.0805: real time      0.8410

 eigenvalue-minimisations  :    14
 total energy-change (2. order) :-0.9795220E-04  (-0.1375033E-05)
 number of electron       2.0000000 magnetization 
 augmentation part        0.0265499 magnetization 

 Free energy of the ion-electron system (eV)
  ---------------------------------------------------
  alpha Z        PSCENC =         0.00241580
  Ewald energy   TEWEN  =         1.45716956
  -Hartree energ DENC   =       -17.03449629
  -exchange      EXHF   =         0.00000000
  -V(xc)+E(xc)   XCENC  =         3.71651697
  PAW double counting   =         4.08519937       -4.10214405
  entropy T*S    EENTRO =        -0.05072385
  eigenvalues    EBANDS =       -13.32199689
  atomic energy  EATOM  =        24.97394176
  Solvation  Ediel_sol  =         0.00000000
  ---------------------------------------------------
  free energy    TOTEN  =        -0.27411761 eV

  energy without entropy =       -0.22339377  energy(sigma->0) =       -0.24875569


--------------------------------------------------------------------------------------------------------




 average (electrostatic) potential at core
  the test charge radii are     0.5201
  (the norm of the test charge is              1.0000)
       1 -42.6260       2 -42.6260
 
 
 
 E-fermi :  -6.5498     XC(G=0):  -0.2653     alpha+bet : -0.0137

 Fermi energy:        -6.5497637931

 k-point     1 :       0.0000    0.0000    0.0000
  band No.  band energies     occupation 
      1      -6.6791      1.86002
      2      -6.4204      0.13998
      3      -0.1863      0.00000
      4      -0.0610      0.00000
      5       0.0183      0.00000
      6       0.3844      0.00000
      7       0.4144      0.00000
      8       0.5048      0.00000


--------------------------------------------------------------------------------------------------------


 soft charge-density along one line, spin component            1
         0         1         2         3         4         5         6         7         8         9
 total charge-density along one line
 
 pseudopotential strength for first ion, spin component:            1
 -2.369  -4.085  -0.000   0.000  -0.000
 -4.085  -6.959  -0.000   0.000  -0.000
 -0.000  -0.000  -0.346   0.000  -0.000
  0.000   0.000   0.000  -0.346   0.000
 -0.000  -0.000  -0.000   0.000  -0.346
 total augmentation occupancy for first ion, spin component:            1
  1.006  -0.008  -0.000   0.001  -0.000
 -0.008   0.000   0.000  -0.000   0.000
 -0.000   0.000   0.000  -0.000   0.000
  0.001  -0.000  -0.000   0.000  -0.000
 -0.000   0.000   0.000  -0.000   0.000


------------------------ aborting loop because EDIFF is reached ----------------------------------------





 total charge

# of ion       s       p       d       tot
------------------------------------------
    1        0.342   0.000   0.000   0.342
    2        0.342   0.000   0.000   0.342
--------------------------------------------------
tot          0.684   0.000   0.000   0.684
 
    CHARGE:  cpu time      0.9340: real time      0.8567
    FORLOC:  cpu time      0.0145: real time      0.0145
    FORNL :  cpu time      4.9223: real time      4.2782
    STRESS:  cpu time     15.5700: real time     13.6516
    FORHAR:  cpu time      0.0398: real time      0.0190
    MIXING:  cpu time      0.1813: real time      0.0498
    OFIELD:  cpu time      0.0002: real time      0.0001

 ---------------------------------------------------------------------------------------------

         DFTD3 V3.0 Rev 1        
 IVDW         = 12
 DF pbe       
 parameters
 VDW_S6       =    1.0000
 VDW_S8       =    0.7875
 VDW_A1       =    0.4289
 VDW_A2       =    4.4407
 k1-k3        =   16.0000    1.3333   -4.0000
 VDW_RADIUS   =   50.2022 A
 VDW_CNRADIUS =   21.1671 A
 Edisp (eV)   -0.00159

 E6    (eV) :    -0.0013
 E8    (eV) :    -0.0003
 % E8        : 17.42
    FORVDW:  cpu time      0.0118: real time      0.0038

  FORCE on cell =-STRESS in cart. coord.  units (eV):
  Direction    XX          YY          ZZ          XY          YZ          ZX
  --------------------------------------------------------------------------------------
  Alpha Z     0.00242     0.00242     0.00242
  Ewald       2.67259     2.26175    -3.47718     0.00430    -0.01497    -0.95352
  Hartree     7.95868     7.59257     1.48836     0.00372    -0.01300    -0.82754
  E(xc)      -4.27171    -4.27409    -4.24868     0.00004    -0.00012    -0.00777
  Local     -17.90816   -17.12182    -5.37954    -0.00816     0.02845     1.81197
  n-local    -3.27361    -3.27341    -3.27679    -0.00000     0.00002     0.00101
  augment     0.17761     0.17759     0.17771     0.00000    -0.00000    -0.00004
  Kinetic    14.53318    14.61926    13.70003    -0.00133     0.00437     0.28112
  Fock        0.00000     0.00000     0.00000     0.00000     0.00000     0.00000
  vdW        -0.00069    -0.00005    -0.00670    -0.00001     0.00003     0.00204
  -------------------------------------------------------------------------------------
  Total      -0.10969    -0.01578    -1.02036    -0.00145     0.00477     0.30727
  in kB      -0.04357    -0.00627    -0.40528    -0.00058     0.00190     0.12205
  external pressure =       -0.15 kB  Pullay stress =        0.00 kB


 VOLUME and BASIS-vectors are now :
 -----------------------------------------------------------------------------
  energy-cutoff  :      520.00
  volume of cell :     4033.72
      direct lattice vectors                 reciprocal lattice vectors
    11.103800000  0.000000000  0.000000000     0.090059259  0.000000000  0.000000000
     0.000000000 11.200200000  0.000000000     0.000000000  0.089284120  0.000000000
     0.000000000  0.000000000 32.434600000     0.000000000  0.000000000  0.030831273

  length of vectors
    11.103800000 11.200200000 32.434600000     0.090059259  0.089284120  0.030831273


 FORCES acting on ions
    electron-ion (+dipol)            ewald-force                    non-local-force                 convergence-correction
 -----------------------------------------------------------------------------------------------
   -.350E+00 -.548E-02 0.143E+01   0.272E+00 0.426E-02 -.117E+01   -.810E-02 -.127E-03 0.265E-01   0.121E-03 0.163E-05 -.683E-03
   0.350E+00 0.548E-02 -.143E+01   -.272E+00 -.426E-02 0.117E+01   0.810E-02 0.127E-03 -.265E-01   -.121E-03 -.163E-05 0.683E-03
 -----------------------------------------------------------------------------------------------
   0.161E-07 -.606E-08 -.714E-07   0.000E+00 -.347E-17 0.000E+00   -.173E-17 0.000E+00 0.000E+00   0.260E-08 -.259E-08 0.602E-09
 
 
 POSITION                                       TOTAL-FORCE (eV/Angst)
 -----------------------------------------------------------------------------------
      5.85950      7.09067     14.97478        -0.087259     -0.001355      0.285907
      4.78538      7.07400     18.48638         0.087259      0.001355     -0.285907
 -----------------------------------------------------------------------------------
    total drift:                                0.000000     -0.000000     -0.000000


--------------------------------------------------------------------------------------------------------



  FREE ENERGIE OF THE ION-ELECTRON SYSTEM (eV)
  ---------------------------------------------------
  free  energy   TOTEN  =        -0.27571098 eV

  energy  without entropy=       -0.22498714  energy(sigma->0) =       -0.25034906
 


--------------------------------------------------------------------------------------------------------


    POTLOK:  cpu time      0.9854: real time      0.8505


--------------------------------------------------------------------------------------------------------




--------------------------------------------------------------------------------------------------------


    WAVPRE:  cpu time      5.5438: real time      5.4728
    FEWALD:  cpu time      0.0832: real time      0.0045
    ORTHCH:  cpu time      0.0286: real time      0.0120
     LOOP+:  cpu time     43.2483: real time     37.4292


--------------------------------------- Iteration      2(   1)  ---------------------------------------


    POTLOK:  cpu time      0.0964: real time      0.0948
    SETDIJ:  cpu time      0.8132: real time      0.7135
     EDDAV:  cpu time      0.0520: real time      0.0245
       DOS:  cpu time      0.0003: real time      0.0003
    CHARGE:  cpu time      0.9081: real time      0.8294
    MIXING:  cpu time      0.2005: real time      0.0465
    --------------------------------------------
      LOOP:  cpu time      2.0705: real time      1.7091

 eigenvalue-minimisations  :    16
 total energy-change (2. order) :-0.9003086E-02  (-0.1133273E-01)
 number of electron       2.0000000 magnetization 
 augmentation part        0.0265107 magnetization 

 Broyden mixing:
  rms(total) = 0.10784E-02    rms(broyden)= 0.10711E-02
  rms(prec ) = 0.11336E-02
  weight for this iteration     100.00

 Free energy of the ion-electron system (eV)
  ---------------------------------------------------
  alpha Z        PSCENC =         0.00241580
  Ewald energy   TEWEN  =         1.49198900
  -Hartree energ DENC   =       -17.07581024
  -exchange      EXHF   =         0.00000000
  -V(xc)+E(xc)   XCENC  =         3.71710147
  PAW double counting   =         4.08598028       -4.10291953
  entropy T*S    EENTRO =        -0.04735967
  eigenvalues    EBANDS =       -13.32836162
  atomic energy  EATOM  =        24.97394176
  Solvation  Ediel_sol  =         0.00000000
  ---------------------------------------------------
  free energy    TOTEN  =        -0.28302274 eV

  energy without entropy =       -0.23566308  energy(sigma->0) =       -0.25934291


--------------------------------------------------------------------------------------------------------




--------------------------------------- Iteration      2(   2)  ---------------------------------------


    POTLOK:  cpu time      0.0969: real time      0.0959
    SETDIJ:  cpu time      0.8312: real time      0.7191
    EDDIAG:  cpu time      0.0224: real time      0.0057
  RMM-DIIS:  cpu time      0.0127: real time      0.0125
    ORTHCH:  cpu time      0.0023: real time      0.0024
       DOS:  cpu time      0.0003: real time      0.0003
    CHARGE:  cpu time      0.9089: real time      0.8325
    MIXING:  cpu time      0.2220: real time      0.0441
    --------------------------------------------
      LOOP:  cpu time      2.0970: real time      1.7126

 eigenvalue-minimisations  :    16
 total energy-change (2. order) :-0.3771724E-04  (-0.1900959E-04)
 number of electron       2.0000000 magnetization 
 augmentation part        0.0265151 magnetization 

 Broyden mixing:
  rms(total) = 0.61759E-03    rms(broyden)= 0.61733E-03
  rms(prec ) = 0.66660E-03
  weight for this iteration     100.00

 eigenvalues of (default mixing * dielectric matrix)
  average eigenvalue GAMMA=   1.9413
  1.9413

 Free energy of the ion-electron system (eV)
  ---------------------------------------------------
  alpha Z        PSCENC =         0.00241580
  Ewald energy   TEWEN  =         1.49198900
  -Hartree energ DENC   =       -17.07189717
  -exchange      EXHF   =         0.00000000
  -V(xc)+E(xc)   XCENC  =         3.71605316
  PAW double counting   =         4.08244032       -4.09936603
  entropy T*S    EENTRO =        -0.04735913
  eigenvalues    EBANDS =       -13.33127816
  atomic energy  EATOM  =        24.97394176
  Solvation  Ediel_sol  =         0.00000000
  ---------------------------------------------------
  free energy    TOTEN  =        -0.28306046 eV

  energy without entropy =       -0.23570133  energy(sigma->0) =       -0.25938090


--------------------------------------------------------------------------------------------------------




--------------------------------------- Iteration      2(   3)  ---------------------------------------


    POTLOK:  cpu time      0.1129: real time      0.0965
    SETDIJ:  cpu time      0.8567: real time      0.7296
    EDDIAG:  cpu time      0.0199: real time      0.0057
  RMM-DIIS:  cpu time      0.0125: real time      0.0123
    ORTHCH:  cpu time      0.0023: real time      0.0023
       DOS:  cpu time      0.0003: real time      0.0003
    CHARGE:  cpu time      0.9085: real time      0.8321
    MIXING:  cpu time      0.2123: real time      0.0463
    --------------------------------------------
      LOOP:  cpu time      2.1254: real time      1.7252

 eigenvalue-minimisations  :    14
 total energy-change (2. order) :-0.3008621E-04  (-0.2331872E-05)
 number of electron       2.0000000 magnetization 
 augmentation part        0.0265203 magnetization 

 Broyden mixing:
  rms(total) = 0.19729E-03    rms(broyden)= 0.19717E-03
  rms(prec ) = 0.22715E-03
  weight for this iteration     100.00

 eigenvalues of (default mixing * dielectric matrix)
  average eigenvalue GAMMA=   1.9248
  1.3963  2.4532

 Free energy of the ion-electron system (eV)
  ---------------------------------------------------
  alpha Z        PSCENC =         0.00241580
  Ewald energy   TEWEN  =         1.49198900
  -Hartree energ DENC   =       -17.06721204
  -exchange      EXHF   =         0.00000000
  -V(xc)+E(xc)   XCENC  =         3.71475486
  PAW double counting   =         4.07856476       -4.09547775
  entropy T*S    EENTRO =        -0.04734931
  eigenvalues    EBANDS =       -13.33471763
  atomic energy  EATOM  =        24.97394176
  Solvation  Ediel_sol  =         0.00000000
  ---------------------------------------------------
  free energy    TOTEN  =        -0.28309055 eV

  energy without entropy =       -0.23574124  energy(sigma->0) =       -0.25941589


--------------------------------------------------------------------------------------------------------




--------------------------------------- Iteration      2(   4)  ---------------------------------------


    POTLOK:  cpu time      0.1060: real time      0.0966
    SETDIJ:  cpu time      0.8478: real time      0.7257
    EDDIAG:  cpu time      0.0235: real time      0.0065
  RMM-DIIS:  cpu time      0.0122: real time      0.0120
    ORTHCH:  cpu time      0.0023: real time      0.0023
       DOS:  cpu time      0.0003: real time      0.0003
    CHARGE:  cpu time      0.9045: real time      0.8301
    MIXING:  cpu time      0.2449: real time      0.0586
    --------------------------------------------
      LOOP:  cpu time      2.1413: real time      1.7321

 eigenvalue-minimisations  :    14
 total energy-change (2. order) :-0.1588451E-04  (-0.2791321E-06)
 number of electron       2.0000000 magnetization 
 augmentation part        0.0265224 magnetization 

 Broyden mixing:
  rms(total) = 0.96912E-04    rms(broyden)= 0.96857E-04
  rms(prec ) = 0.11910E-03
  weight for this iteration     100.00

 eigenvalues of (default mixing * dielectric matrix)
  average eigenvalue GAMMA=   2.0420
  1.0148  2.5556  2.5556

 Free energy of the ion-electron system (eV)
  ---------------------------------------------------
  alpha Z        PSCENC =         0.00241580
  Ewald energy   TEWEN  =         1.49198900
  -Hartree energ DENC   =       -17.06629987
  -exchange      EXHF   =         0.00000000
  -V(xc)+E(xc)   XCENC  =         3.71441372
  PAW double counting   =         4.07816512       -4.09507896
  entropy T*S    EENTRO =        -0.04733629
  eigenvalues    EBANDS =       -13.33531671
  atomic energy  EATOM  =        24.97394176
  Solvation  Ediel_sol  =         0.00000000
  ---------------------------------------------------
  free energy    TOTEN  =        -0.28310643 eV

  energy without entropy =       -0.23577014  energy(sigma->0) =       -0.25943829


--------------------------------------------------------------------------------------------------------




--------------------------------------- Iteration      2(   5)  ---------------------------------------


    POTLOK:  cpu time      0.0975: real time      0.0968
    SETDIJ:  cpu time      0.8430: real time      0.7353
    EDDIAG:  cpu time      0.0334: real time      0.0081
  RMM-DIIS:  cpu time      0.0121: real time      0.0119
    ORTHCH:  cpu time      0.0024: real time      0.0024
       DOS:  cpu time      0.0004: real time      0.0003
    CHARGE:  cpu time      0.9147: real time      0.8390
    MIXING:  cpu time      0.2072: real time      0.0491
    --------------------------------------------
      LOOP:  cpu time      2.1106: real time      1.7428

 eigenvalue-minimisations  :    14
 total energy-change (2. order) :-0.1204924E-04  (-0.7078485E-07)
 number of electron       2.0000000 magnetization 
 augmentation part        0.0265233 magnetization 

 Broyden mixing:
  rms(total) = 0.34904E-04    rms(broyden)= 0.34866E-04
  rms(prec ) = 0.58016E-04
  weight for this iteration     100.00

 eigenvalues of (default mixing * dielectric matrix)
  average eigenvalue GAMMA=   2.0596
  3.5174  2.5592  0.9463  1.2153

 Free energy of the ion-electron system (eV)
  ---------------------------------------------------
  alpha Z        PSCENC =         0.00241580
  Ewald energy   TEWEN  =         1.49198900
  -Hartree energ DENC   =       -17.06677784
  -exchange      EXHF   =         0.00000000
  -V(xc)+E(xc)   XCENC  =         3.71441352
  PAW double counting   =         4.07870547       -4.09562356
  entropy T*S    EENTRO =        -0.04732604
  eigenvalues    EBANDS =       -13.33485659
  atomic energy  EATOM  =        24.97394176
  Solvation  Ediel_sol  =         0.00000000
  ---------------------------------------------------
  free energy    TOTEN  =        -0.28311848 eV

  energy without entropy =       -0.23579245  energy(sigma->0) =       -0.25945546


--------------------------------------------------------------------------------------------------------




--------------------------------------- Iteration      2(   6)  ---------------------------------------


    POTLOK:  cpu time      0.0976: real time      0.0965
    SETDIJ:  cpu time      0.8451: real time      0.7193
    EDDIAG:  cpu time      0.0370: real time      0.0116
  RMM-DIIS:  cpu time      0.0118: real time      0.0117
    ORTHCH:  cpu time      0.0022: real time      0.0022
       DOS:  cpu time      0.0003: real time      0.0003
    --------------------------------------------
      LOOP:  cpu time      0.9940: real time      0.8416

 eigenvalue-minimisations  :    12
 total energy-change (2. order) :-0.9078180E-05  ( 0.0000000E+00)
 number of electron       2.0000000 magnetization 
 augmentation part        0.0265233 magnetization 

 Free energy of the ion-electron system (eV)
  ---------------------------------------------------
  alpha Z        PSCENC =         0.00241580
  Ewald energy   TEWEN  =         1.49198900
  -Hartree energ DENC   =       -17.06724029
  -exchange      EXHF   =         0.00000000
  -V(xc)+E(xc)   XCENC  =         3.71442896
  PAW double counting   =         4.07886115       -4.09578107
  entropy T*S    EENTRO =        -0.04732076
  eigenvalues    EBANDS =       -13.33442211
  atomic energy  EATOM  =        24.97394176
  Solvation  Ediel_sol  =         0.00000000
  ---------------------------------------------------
  free energy    TOTEN  =        -0.28312756 eV

  energy without entropy =       -0.23580680  energy(sigma->0) =       -0.25946718


--------------------------------------------------------------------------------------------------------




 average (electrostatic) potential at core
  the test charge radii are     0.5201
  (the norm of the test charge is              1.0000)
       1 -42.6306       2 -42.6305
 
 
 
 E-fermi :  -6.5498     XC(G=0):  -0.2331     alpha+bet : -0.0137

 Fermi energy:        -6.5497860787

 k-point     1 :       0.0000    0.0000    0.0000
  band No.  band energies     occupation 
      1      -6.6843      1.87292
      2      -6.4153      0.12708
      3      -0.1498      0.00000
      4      -0.0032      0.00000
      5       0.0475      0.00000
      6       0.4090      0.00000
      7       0.4291      0.00000
      8       0.4960      0.00000


--------------------------------------------------------------------------------------------------------


 soft charge-density along one line, spin component            1
         0         1         2         3         4         5         6         7         8         9
 total charge-density along one line
 
 pseudopotential strength for first ion, spin component:            1
 -2.369  -4.086  -0.000   0.000  -0.000
 -4.086  -6.959  -0.000   0.000  -0.000
 -0.000  -0.000  -0.346   0.000  -0.000
  0.000   0.000   0.000  -0.346   0.000
 -0.000  -0.000  -0.000   0.000  -0.346
 total augmentation occupancy for first ion, spin component:            1
  1.005  -0.008  -0.000   0.001  -0.000
 -0.008   0.000   0.000  -0.000   0.000
 -0.000   0.000   0.000  -0.000   0.000
  0.001  -0.000  -0.000   0.000  -0.000
 -0.000   0.000   0.000  -0.000   0.000


------------------------ aborting loop because EDIFF is reached ----------------------------------------





 total charge

# of ion       s       p       d       tot
------------------------------------------
    1        0.342   0.000   0.000   0.342
    2        0.342   0.000   0.000   0.342
--------------------------------------------------
tot          0.683   0.000   0.000   0.683
 
    CHARGE:  cpu time      0.9391: real time      0.8620
    FORLOC:  cpu time      0.0160: real time      0.0159
    FORNL :  cpu time      4.9430: real time      4.3119
    STRESS:  cpu time     15.6199: real time     13.7568
    FORHAR:  cpu time      0.0395: real time      0.0175
    MIXING:  cpu time      0.1436: real time      0.0394
    OFIELD:  cpu time      0.0004: real time      0.0000

 ---------------------------------------------------------------------------------------------

         DFTD3 V3.0 Rev 1        
 Edisp (eV)   -0.00165

 E6    (eV) :    -0.0014
 E8    (eV) :    -0.0003
 % E8        : 17.64
    FORVDW:  cpu time      0.0144: real time      0.0029

  FORCE on cell =-STRESS in cart. coord.  units (eV):
  Direction    XX          YY          ZZ          XY          YZ          ZX
  --------------------------------------------------------------------------------------
  Alpha Z     0.00242     0.00242     0.00242
  Ewald       2.68285     2.26938    -3.46025     0.00435    -0.01513    -0.96397
  Hartree     7.96984     7.60203     1.49636     0.00375    -0.01312    -0.83513
  E(xc)      -4.26961    -4.27216    -4.24489     0.00004    -0.00013    -0.00834
  Local     -17.92630   -17.13513    -5.40596    -0.00826     0.02875     1.83161
  n-local    -3.27025    -3.27004    -3.27355    -0.00000     0.00002     0.00105
  augment     0.17745     0.17743     0.17756    -0.00000    -0.00000    -0.00004
  Kinetic    14.51941    14.60933    13.64925    -0.00139     0.00456     0.29356
  Fock        0.00000     0.00000     0.00000     0.00000     0.00000     0.00000
  vdW        -0.00070    -0.00005    -0.00686    -0.00001     0.00003     0.00209
  -------------------------------------------------------------------------------------
  Total      -0.11489    -0.01680    -1.06593    -0.00152     0.00499     0.32084
  in kB      -0.04564    -0.00667    -0.42338    -0.00060     0.00198     0.12744
  external pressure =       -0.16 kB  Pullay stress =        0.00 kB


 VOLUME and BASIS-vectors are now :
 -----------------------------------------------------------------------------
  energy-cutoff  :      520.00
  volume of cell :     4033.72
      direct lattice vectors                 reciprocal lattice vectors
    11.103800000  0.000000000  0.000000000     0.090059259  0.000000000  0.000000000
     0.000000000 11.200200000  0.000000000     0.000000000  0.089284120  0.000000000
     0.000000000  0.000000000 32.434600000     0.000000000  0.000000000  0.030831273

  length of vectors
    11.103800000 11.200200000 32.434600000     0.090059259  0.089284120  0.030831273


 FORCES acting on ions
    electron-ion (+dipol)            ewald-force                    non-local-force                 convergence-correction
 -----------------------------------------------------------------------------------------------
   -.360E+00 -.563E-02 0.146E+01   0.277E+00 0.434E-02 -.119E+01   -.855E-02 -.134E-03 0.279E-01   0.353E-04 0.484E-06 -.196E-03
   0.360E+00 0.563E-02 -.146E+01   -.277E+00 -.434E-02 0.119E+01   0.855E-02 0.134E-03 -.279E-01   -.353E-04 -.485E-06 0.196E-03
 -----------------------------------------------------------------------------------------------
   -.230E-07 0.291E-07 0.280E-07   0.000E+00 -.347E-17 0.000E+00   0.000E+00 0.000E+00 0.000E+00   0.214E-09 -.100E-08 0.213E-09
 
 
 POSITION                                       TOTAL-FORCE (eV/Angst)
 -----------------------------------------------------------------------------------
      5.85529      7.09061     14.98857        -0.092046     -0.001429      0.301403
      4.78959      7.07406     18.47259         0.092046      0.001429     -0.301403
 -----------------------------------------------------------------------------------
    total drift:                               -0.000000      0.000000      0.000000


--------------------------------------------------------------------------------------------------------



  FREE ENERGIE OF THE ION-ELECTRON SYSTEM (eV)
  ---------------------------------------------------
  free  energy   TOTEN  =        -0.28477937 eV

  energy  without entropy=       -0.23745861  energy(sigma->0) =       -0.26111899
 
 d Force = 0.8855672E-02[ 0.909E-02, 0.862E-02]  d Energy = 0.9068388E-02-0.213E-03
 d Force =-0.3482038E-01[-0.351E-01,-0.346E-01]  d Ewald  =-0.3481944E-01-0.945E-06


--------------------------------------------------------------------------------------------------------


    POTLOK:  cpu time      0.9249: real time      0.8421


--------------------------------------------------------------------------------------------------------


 Steepest descent step on ions:
 trial-energy change:   -0.009068  1 .order   -0.008856   -0.008622   -0.009090
  (g-gl).g = 0.862E-02      g.g   = 0.862E-02  gl.gl    = 0.000E+00
 g(Force)  = 0.862E-02   g(Stress)= 0.000E+00 ortho     = 0.000E+00
 gamma     =   0.00000
 trial     =   1.00000
 opt step  =   4.00000  (harmonic =   4.00000) maximal distance =0.05517157
 next E    =    -0.313940   (d E  =  -0.03823)


--------------------------------------------------------------------------------------------------------


    WAVPRE:  cpu time      0.1019: real time      0.0816
    FEWALD:  cpu time      0.0776: real time      0.0042
    ORTHCH:  cpu time      0.0287: real time      0.0119
     LOOP+:  cpu time     35.2575: real time     30.1603


--------------------------------------- Iteration      3(   1)  ---------------------------------------


    POTLOK:  cpu time      0.0964: real time      0.0949
    SETDIJ:  cpu time      0.8301: real time      0.7316
     EDDAV:  cpu time      0.0485: real time      0.0210
       DOS:  cpu time      0.0003: real time      0.0003
    CHARGE:  cpu time      0.9067: real time      0.8299
    MIXING:  cpu time      0.2248: real time      0.0501
    --------------------------------------------
      LOOP:  cpu time      2.1072: real time      1.7278

 eigenvalue-minimisations  :    16
 total energy-change (2. order) :-0.2900169E-01  (-0.1018711E+00)
 number of electron       2.0000000 magnetization 
 augmentation part        0.0263246 magnetization 

 Broyden mixing:
  rms(total) = 0.45794E-02    rms(broyden)= 0.45630E-02
  rms(prec ) = 0.47639E-02
  weight for this iteration     100.00

 Free energy of the ion-electron system (eV)
  ---------------------------------------------------
  alpha Z        PSCENC =         0.00241580
  Ewald energy   TEWEN  =         1.59933386
  -Hartree energ DENC   =       -17.19103231
  -exchange      EXHF   =         0.00000000
  -V(xc)+E(xc)   XCENC  =         3.71792302
  PAW double counting   =         4.07797622       -4.09489175
  entropy T*S    EENTRO =        -0.03750719
  eigenvalues    EBANDS =       -13.36027959
  atomic energy  EATOM  =        24.97394176
  Solvation  Ediel_sol  =         0.00000000
  ---------------------------------------------------
  free energy    TOTEN  =        -0.31212017 eV

  energy without entropy =       -0.27461299  energy(sigma->0) =       -0.29336658


--------------------------------------------------------------------------------------------------------




--------------------------------------- Iteration      3(   2)  ---------------------------------------


    POTLOK:  cpu time      0.1027: real time      0.0973
    SETDIJ:  cpu time      0.8285: real time      0.7237
    EDDIAG:  cpu time      0.0258: real time      0.0058
  RMM-DIIS:  cpu time      0.0128: real time      0.0126
    ORTHCH:  cpu time      0.0023: real time      0.0023
       DOS:  cpu time      0.0003: real time      0.0003
    CHARGE:  cpu time      0.9002: real time      0.8235
    MIXING:  cpu time      0.2013: real time      0.0468
    --------------------------------------------
      LOOP:  cpu time      2.0738: real time      1.7123

 eigenvalue-minimisations  :    16
 total energy-change (2. order) :-0.2153679E-03  (-0.2191575E-03)
 number of electron       2.0000000 magnetization 
 augmentation part        0.0263797 magnetization 

 Broyden mixing:
  rms(total) = 0.22025E-02    rms(broyden)= 0.22019E-02
  rms(prec ) = 0.23478E-02
  weight for this iteration     100.00

 eigenvalues of (default mixing * dielectric matrix)
  average eigenvalue GAMMA=   1.6971
  1.6971

 Free energy of the ion-electron system (eV)
  ---------------------------------------------------
  alpha Z        PSCENC =         0.00241580
  Ewald energy   TEWEN  =         1.59933386
  -Hartree energ DENC   =       -17.17364279
  -exchange      EXHF   =         0.00000000
  -V(xc)+E(xc)   XCENC  =         3.71356027
  PAW double counting   =         4.06265292       -4.07948238
  entropy T*S    EENTRO =        -0.03754781
  eigenvalues    EBANDS =       -13.37356718
  atomic energy  EATOM  =        24.97394176
  Solvation  Ediel_sol  =         0.00000000
  ---------------------------------------------------
  free energy    TOTEN  =        -0.31233554 eV

  energy without entropy =       -0.27478773  energy(sigma->0) =       -0.29356164


--------------------------------------------------------------------------------------------------------




--------------------------------------- Iteration      3(   3)  ---------------------------------------


    POTLOK:  cpu time      0.1068: real time      0.0961
    SETDIJ:  cpu time      0.8368: real time      0.7103
    EDDIAG:  cpu time      0.0380: real time      0.0121
  RMM-DIIS:  cpu time      0.0129: real time      0.0128
    ORTHCH:  cpu time      0.0023: real time      0.0023
       DOS:  cpu time      0.0003: real time      0.0003
    CHARGE:  cpu time      0.9145: real time      0.8226
    MIXING:  cpu time      0.1774: real time      0.0432
    --------------------------------------------
      LOOP:  cpu time      2.0890: real time      1.6996

 eigenvalue-minimisations  :    16
 total energy-change (2. order) :-0.4841635E-04  (-0.2857611E-04)
 number of electron       2.0000000 magnetization 
 augmentation part        0.0264144 magnetization 

 Broyden mixing:
  rms(total) = 0.70908E-03    rms(broyden)= 0.70869E-03
  rms(prec ) = 0.78631E-03
  weight for this iteration     100.00

 eigenvalues of (default mixing * dielectric matrix)
  average eigenvalue GAMMA=   1.9761
  1.4862  2.4661

 Free energy of the ion-electron system (eV)
  ---------------------------------------------------
  alpha Z        PSCENC =         0.00241580
  Ewald energy   TEWEN  =         1.59933386
  -Hartree energ DENC   =       -17.15811322
  -exchange      EXHF   =         0.00000000
  -V(xc)+E(xc)   XCENC  =         3.70952939
  PAW double counting   =         4.04978412       -4.06656299
  entropy T*S    EENTRO =        -0.03754104
  eigenvalues    EBANDS =       -13.38517165
  atomic energy  EATOM  =        24.97394176
  Solvation  Ediel_sol  =         0.00000000
  ---------------------------------------------------
  free energy    TOTEN  =        -0.31238396 eV

  energy without entropy =       -0.27484292  energy(sigma->0) =       -0.29361344


--------------------------------------------------------------------------------------------------------




--------------------------------------- Iteration      3(   4)  ---------------------------------------


    POTLOK:  cpu time      0.1110: real time      0.0961
    SETDIJ:  cpu time      0.8565: real time      0.7194
    EDDIAG:  cpu time      0.0184: real time      0.0056
  RMM-DIIS:  cpu time      0.0123: real time      0.0123
    ORTHCH:  cpu time      0.0023: real time      0.0023
       DOS:  cpu time      0.0003: real time      0.0003
    CHARGE:  cpu time      0.9132: real time      0.8278
    MIXING:  cpu time      0.2209: real time      0.0474
    --------------------------------------------
      LOOP:  cpu time      2.1349: real time      1.7112

 eigenvalue-minimisations  :    15
 total energy-change (2. order) :-0.1193082E-04  (-0.5167577E-05)
 number of electron       2.0000000 magnetization 
 augmentation part        0.0264332 magnetization 

 Broyden mixing:
  rms(total) = 0.41874E-03    rms(broyden)= 0.41846E-03
  rms(prec ) = 0.44864E-03
  weight for this iteration     100.00

 eigenvalues of (default mixing * dielectric matrix)
  average eigenvalue GAMMA=   1.9992
  0.9566  2.5205  2.5205

 Free energy of the ion-electron system (eV)
  ---------------------------------------------------
  alpha Z        PSCENC =         0.00241580
  Ewald energy   TEWEN  =         1.59933386
  -Hartree energ DENC   =       -17.15391869
  -exchange      EXHF   =         0.00000000
  -V(xc)+E(xc)   XCENC  =         3.70821041
  PAW double counting   =         4.04746264       -4.06425046
  entropy T*S    EENTRO =        -0.03749744
  eigenvalues    EBANDS =       -13.38809376
  atomic energy  EATOM  =        24.97394176
  Solvation  Ediel_sol  =         0.00000000
  ---------------------------------------------------
  free energy    TOTEN  =        -0.31239589 eV

  energy without entropy =       -0.27489845  energy(sigma->0) =       -0.29364717


--------------------------------------------------------------------------------------------------------




--------------------------------------- Iteration      3(   5)  ---------------------------------------


    POTLOK:  cpu time      0.0998: real time      0.0962
    SETDIJ:  cpu time      0.8472: real time      0.7219
    EDDIAG:  cpu time      0.0340: real time      0.0082
  RMM-DIIS:  cpu time      0.0125: real time      0.0124
    ORTHCH:  cpu time      0.0022: real time      0.0022
       DOS:  cpu time      0.0003: real time      0.0003
    CHARGE:  cpu time      0.9223: real time      0.8251
    MIXING:  cpu time      0.1885: real time      0.0481
    --------------------------------------------
      LOOP:  cpu time      2.1069: real time      1.7145

 eigenvalue-minimisations  :    13
 total energy-change (2. order) :-0.3325358E-05  (-0.7244259E-06)
 number of electron       2.0000000 magnetization 
 augmentation part        0.0264373 magnetization 

 Broyden mixing:
  rms(total) = 0.11201E-03    rms(broyden)= 0.11187E-03
  rms(prec ) = 0.14092E-03
  weight for this iteration     100.00

 eigenvalues of (default mixing * dielectric matrix)
  average eigenvalue GAMMA=   2.0224
  3.3227  2.5746  0.9310  1.2613

 Free energy of the ion-electron system (eV)
  ---------------------------------------------------
  alpha Z        PSCENC =         0.00241580
  Ewald energy   TEWEN  =         1.59933386
  -Hartree energ DENC   =       -17.15658300
  -exchange      EXHF   =         0.00000000
  -V(xc)+E(xc)   XCENC  =         3.70863072
  PAW double counting   =         4.04994584       -4.06675916
  entropy T*S    EENTRO =        -0.03746244
  eigenvalues    EBANDS =       -13.38586259
  atomic energy  EATOM  =        24.97394176
  Solvation  Ediel_sol  =         0.00000000
  ---------------------------------------------------
  free energy    TOTEN  =        -0.31239921 eV

  energy without entropy =       -0.27493677  energy(sigma->0) =       -0.29366799


--------------------------------------------------------------------------------------------------------




--------------------------------------- Iteration      3(   6)  ---------------------------------------


    POTLOK:  cpu time      0.1119: real time      0.0968
    SETDIJ:  cpu time      0.8040: real time      0.7119
    EDDIAG:  cpu time      0.0360: real time      0.0087
  RMM-DIIS:  cpu time      0.0124: real time      0.0123
    ORTHCH:  cpu time      0.0023: real time      0.0023
       DOS:  cpu time      0.0003: real time      0.0003
    --------------------------------------------
      LOOP:  cpu time      0.9669: real time      0.8324

 eigenvalue-minimisations  :    11
 total energy-change (2. order) :-0.3693771E-05  (-0.1405893E-06)
 number of electron       2.0000000 magnetization 
 augmentation part        0.0264373 magnetization 

 Free energy of the ion-electron system (eV)
  ---------------------------------------------------
  alpha Z        PSCENC =         0.00241580
  Ewald energy   TEWEN  =         1.59933386
  -Hartree energ DENC   =       -17.15844398
  -exchange      EXHF   =         0.00000000
  -V(xc)+E(xc)   XCENC  =         3.70892330
  PAW double counting   =         4.05067407       -4.06749632
  entropy T*S    EENTRO =        -0.03744798
  eigenvalues    EBANDS =       -13.38430342
  atomic energy  EATOM  =        24.97394176
  Solvation  Ediel_sol  =         0.00000000
  ---------------------------------------------------
  free energy    TOTEN  =        -0.31240291 eV

  energy without entropy =       -0.27495493  energy(sigma->0) =       -0.29367892


--------------------------------------------------------------------------------------------------------




 average (electrostatic) potential at core
  the test charge radii are     0.5201
  (the norm of the test charge is              1.0000)
       1 -42.6475       2 -42.6474
 
 
 
 E-fermi :  -6.5548     XC(G=0):  -0.2234     alpha+bet : -0.0137

 Fermi energy:        -6.5547954271

 k-point     1 :       0.0000    0.0000    0.0000
  band No.  band energies     occupation 
      1      -6.7061      1.90755
      2      -6.4034      0.09245
      3      -0.1477      0.00000
      4       0.0096      0.00000
      5       0.0535      0.00000
      6       0.4285      0.00000
      7       0.4318      0.00000
      8       0.4916      0.00000


--------------------------------------------------------------------------------------------------------


 soft charge-density along one line, spin component            1
         0         1         2         3         4         5         6         7         8         9
 total charge-density along one line
 
 pseudopotential strength for first ion, spin component:            1
 -2.370  -4.086  -0.000   0.000  -0.000
 -4.086  -6.960  -0.000   0.000  -0.000
 -0.000  -0.000  -0.346   0.000  -0.000
  0.000   0.000   0.000  -0.346   0.000
 -0.000  -0.000  -0.000   0.000  -0.346
 total augmentation occupancy for first ion, spin component:            1
  1.003  -0.009  -0.000   0.002  -0.000
 -0.009   0.000   0.000  -0.000   0.000
 -0.000   0.000   0.000  -0.000   0.000
  0.002  -0.000  -0.000   0.000  -0.000
 -0.000   0.000   0.000  -0.000   0.000


------------------------ aborting loop because EDIFF is reached ----------------------------------------





 total charge

# of ion       s       p       d       tot
------------------------------------------
    1        0.341   0.000   0.000   0.341
    2        0.341   0.000   0.000   0.341
--------------------------------------------------
tot          0.681   0.000   0.000   0.681
 
    CHARGE:  cpu time      0.9547: real time      0.8538
    FORLOC:  cpu time      0.0120: real time      0.0119
    FORNL :  cpu time      4.8966: real time      4.2294
    STRESS:  cpu time     15.5457: real time     13.6068
    FORHAR:  cpu time      0.0448: real time      0.0205
    MIXING:  cpu time      0.1688: real time      0.0424
    OFIELD:  cpu time      0.0005: real time      0.0000

 ---------------------------------------------------------------------------------------------

         DFTD3 V3.0 Rev 1        
 Edisp (eV)   -0.00184

 E6    (eV) :    -0.0015
 E8    (eV) :    -0.0003
 % E8        : 18.31
    FORVDW:  cpu time      0.0178: real time      0.0029

  FORCE on cell =-STRESS in cart. coord.  units (eV):
  Direction    XX          YY          ZZ          XY          YZ          ZX
  --------------------------------------------------------------------------------------
  Alpha Z     0.00242     0.00242     0.00242
  Ewald       2.71363     2.29206    -3.40636     0.00451    -0.01562    -0.99615
  Hartree     8.00483     7.63181     1.52378     0.00387    -0.01347    -0.85827
  E(xc)      -4.26367    -4.26676    -4.23377     0.00005    -0.00016    -0.01009
  Local     -17.98211   -17.17603    -5.49281    -0.00856     0.02968     1.89218
  n-local    -3.26035    -3.26008    -3.26407    -0.00000     0.00002     0.00121
  augment     0.17695     0.17693     0.17710     0.00000    -0.00000    -0.00005
  Kinetic    14.48096    14.58310    13.49225    -0.00158     0.00518     0.33357
  Fock        0.00000     0.00000     0.00000     0.00000     0.00000     0.00000
  vdW        -0.00075    -0.00006    -0.00732    -0.00001     0.00003     0.00224
[...]


--------------------------------------------------------------------------------------------------------




--------------------------------------------------------------------------------------------------------


    WAVPRE:  cpu time      0.0976: real time      0.0386
    FEWALD:  cpu time      0.1278: real time      0.0138
    ORTHCH:  cpu time      0.0220: real time      0.0122
     LOOP+:  cpu time     34.8202: real time     29.7160


--------------------------------------- Iteration     16(   1)  ---------------------------------------


    POTLOK:  cpu time      0.0980: real time      0.0964
    SETDIJ:  cpu time      0.8308: real time      0.7097
     EDDAV:  cpu time      0.0625: real time      0.0346
       DOS:  cpu time      0.0003: real time      0.0003
    CHARGE:  cpu time      0.9064: real time      0.8302
    MIXING:  cpu time      0.1550: real time      0.0406
    --------------------------------------------
      LOOP:  cpu time      2.0532: real time      1.7118

 eigenvalue-minimisations  :    32
 total energy-change (2. order) :-0.5719953E-05  (-0.9185454E-05)
 number of electron       2.0000000 magnetization 
 augmentation part        0.0418624 magnetization 

 Broyden mixing:
  rms(total) = 0.52613E-03    rms(broyden)= 0.52584E-03
  rms(prec ) = 0.53710E-03
  weight for this iteration     100.00

 Free energy of the ion-electron system (eV)
  ---------------------------------------------------
  alpha Z        PSCENC =         0.00241580
  Ewald energy   TEWEN  =        16.97543784
  -Hartree energ DENC   =       -33.32764381
  -exchange      EXHF   =         0.00000000
  -V(xc)+E(xc)   XCENC  =         5.30242730
  PAW double counting   =        23.46477082      -23.51433216
  entropy T*S    EENTRO =        -0.00000000
  eigenvalues    EBANDS =       -20.64810180
  atomic energy  EATOM  =        24.97394176
  Solvation  Ediel_sol  =         0.00000000
  ---------------------------------------------------
  free energy    TOTEN  =        -6.77108425 eV

  energy without entropy =       -6.77108425  energy(sigma->0) =       -6.77108425


--------------------------------------------------------------------------------------------------------




--------------------------------------- Iteration     16(   2)  ---------------------------------------


    POTLOK:  cpu time      0.1044: real time      0.0970
    SETDIJ:  cpu time      0.8023: real time      0.7100
    EDDIAG:  cpu time      0.0379: real time      0.0097
  RMM-DIIS:  cpu time      0.0108: real time      0.0108
    ORTHCH:  cpu time      0.0023: real time      0.0023
       DOS:  cpu time      0.0003: real time      0.0003
    CHARGE:  cpu time      0.9188: real time      0.8412
    MIXING:  cpu time      0.1912: real time      0.0475
    --------------------------------------------
      LOOP:  cpu time      2.0680: real time      1.7188

 eigenvalue-minimisations  :     8
 total energy-change (2. order) : 0.4635678E-06  ( 0.0000000E+00)
 number of electron       2.0000000 magnetization 
 augmentation part        0.0418626 magnetization 

 Broyden mixing:
  rms(total) = 0.32292E-03    rms(broyden)= 0.32290E-03
  rms(prec ) = 0.33011E-03
  weight for this iteration     100.00

 eigenvalues of (default mixing * dielectric matrix)
  average eigenvalue GAMMA=   2.5830
  2.5830

 Free energy of the ion-electron system (eV)
  ---------------------------------------------------
  alpha Z        PSCENC =         0.00241580
  Ewald energy   TEWEN  =        16.97543784
  -Hartree energ DENC   =       -33.32490433
  -exchange      EXHF   =         0.00000000
  -V(xc)+E(xc)   XCENC  =         5.30203516
  PAW double counting   =        23.44909922      -23.49862459
  entropy T*S    EENTRO =        -0.00000000
  eigenvalues    EBANDS =       -20.65048465
  atomic energy  EATOM  =        24.97394176
  Solvation  Ediel_sol  =         0.00000000
  ---------------------------------------------------
  free energy    TOTEN  =        -6.77108379 eV

  energy without entropy =       -6.77108379  energy(sigma->0) =       -6.77108379


--------------------------------------------------------------------------------------------------------




--------------------------------------- Iteration     16(   3)  ---------------------------------------


    POTLOK:  cpu time      0.1112: real time      0.0965
    SETDIJ:  cpu time      0.7948: real time      0.7121
    EDDIAG:  cpu time      0.0326: real time      0.0068
  RMM-DIIS:  cpu time      0.0127: real time      0.0126
    ORTHCH:  cpu time      0.0023: real time      0.0023
       DOS:  cpu time      0.0003: real time      0.0003
    CHARGE:  cpu time      0.9074: real time      0.8301
    MIXING:  cpu time      0.1531: real time      0.0435
    --------------------------------------------
      LOOP:  cpu time      2.0145: real time      1.7042

 eigenvalue-minimisations  :    14
 total energy-change (2. order) :-0.1406462E-06  ( 0.0000000E+00)
 number of electron       2.0000000 magnetization 
 augmentation part        0.0418630 magnetization 

 Broyden mixing:
  rms(total) = 0.12468E-04    rms(broyden)= 0.12377E-04
  rms(prec ) = 0.13578E-04
  weight for this iteration     100.00

 eigenvalues of (default mixing * dielectric matrix)
  average eigenvalue GAMMA=   2.7401
  2.5745  2.9058

 Free energy of the ion-electron system (eV)
  ---------------------------------------------------
  alpha Z        PSCENC =         0.00241580
  Ewald energy   TEWEN  =        16.97543784
  -Hartree energ DENC   =       -33.32034330
  -exchange      EXHF   =         0.00000000
  -V(xc)+E(xc)   XCENC  =         5.30138226
  PAW double counting   =        23.42497151      -23.47444150
  entropy T*S    EENTRO =        -0.00000000
  eigenvalues    EBANDS =       -20.65444830
  atomic energy  EATOM  =        24.97394176
  Solvation  Ediel_sol  =         0.00000000
  ---------------------------------------------------
  free energy    TOTEN  =        -6.77108393 eV

  energy without entropy =       -6.77108393  energy(sigma->0) =       -6.77108393


--------------------------------------------------------------------------------------------------------




--------------------------------------- Iteration     16(   4)  ---------------------------------------


    POTLOK:  cpu time      0.1132: real time      0.0969
    SETDIJ:  cpu time      0.7828: real time      0.7014
    EDDIAG:  cpu time      0.0349: real time      0.0058
  RMM-DIIS:  cpu time      0.0127: real time      0.0125
    ORTHCH:  cpu time      0.0022: real time      0.0022
       DOS:  cpu time      0.0002: real time      0.0002
    CHARGE:  cpu time      0.8944: real time      0.8173
    MIXING:  cpu time      0.1567: real time      0.0446
    --------------------------------------------
      LOOP:  cpu time      1.9972: real time      1.6810

 eigenvalue-minimisations  :    14
 total energy-change (2. order) :-0.1845568E-06  ( 0.0000000E+00)
 number of electron       2.0000000 magnetization 
 augmentation part        0.0418630 magnetization 

 Broyden mixing:
  rms(total) = 0.36104E-05    rms(broyden)= 0.33329E-05
  rms(prec ) = 0.39625E-05
  weight for this iteration     100.00

 eigenvalues of (default mixing * dielectric matrix)
  average eigenvalue GAMMA=   2.9741
  3.7593  2.5815  2.5815

 Free energy of the ion-electron system (eV)
  ---------------------------------------------------
  alpha Z        PSCENC =         0.00241580
  Ewald energy   TEWEN  =        16.97543784
  -Hartree energ DENC   =       -33.32000168
  -exchange      EXHF   =         0.00000000
  -V(xc)+E(xc)   XCENC  =         5.30133389
  PAW double counting   =        23.42604693      -23.47551941
  entropy T*S    EENTRO =        -0.00000000
  eigenvalues    EBANDS =       -20.65473924
  atomic energy  EATOM  =        24.97394176
  Solvation  Ediel_sol  =         0.00000000
  ---------------------------------------------------
  free energy    TOTEN  =        -6.77108412 eV

  energy without entropy =       -6.77108412  energy(sigma->0) =       -6.77108412


--------------------------------------------------------------------------------------------------------




--------------------------------------- Iteration     16(   5)  ---------------------------------------


    POTLOK:  cpu time      0.1171: real time      0.0968
    SETDIJ:  cpu time      0.8311: real time      0.7091
    EDDIAG:  cpu time      0.0181: real time      0.0057
  RMM-DIIS:  cpu time      0.0126: real time      0.0125
    ORTHCH:  cpu time      0.0023: real time      0.0023
       DOS:  cpu time      0.0003: real time      0.0003
    CHARGE:  cpu time      0.9131: real time      0.8357
    MIXING:  cpu time      0.1999: real time      0.0514
    --------------------------------------------
      LOOP:  cpu time      2.0942: real time      1.7138

 eigenvalue-minimisations  :    13
 total energy-change (2. order) :-0.8696146E-07  ( 0.0000000E+00)
 number of electron       2.0000000 magnetization 
 augmentation part        0.0418630 magnetization 

 Broyden mixing:
  rms(total) = 0.19596E-05    rms(broyden)= 0.13879E-05
  rms(prec ) = 0.17967E-05
  weight for this iteration     100.00
  WARNING: grid for Broyden might be to small

 eigenvalues of (default mixing * dielectric matrix)
  average eigenvalue GAMMA=   2.9243
  3.5012  3.5012  2.4640  2.2309

 Free energy of the ion-electron system (eV)
  ---------------------------------------------------
  alpha Z        PSCENC =         0.00241580
  Ewald energy   TEWEN  =        16.97543784
  -Hartree energ DENC   =       -33.31987832
  -exchange      EXHF   =         0.00000000
  -V(xc)+E(xc)   XCENC  =         5.30131727
  PAW double counting   =        23.42628450      -23.47575753
  entropy T*S    EENTRO =        -0.00000000
  eigenvalues    EBANDS =       -20.65484552
  atomic energy  EATOM  =        24.97394176
  Solvation  Ediel_sol  =         0.00000000
  ---------------------------------------------------
  free energy    TOTEN  =        -6.77108420 eV

  energy without entropy =       -6.77108420  energy(sigma->0) =       -6.77108420


--------------------------------------------------------------------------------------------------------




--------------------------------------- Iteration     16(   6)  ---------------------------------------


    POTLOK:  cpu time      0.0995: real time      0.0963
    SETDIJ:  cpu time      0.8879: real time      0.7363
    EDDIAG:  cpu time      0.0230: real time      0.0106
  RMM-DIIS:  cpu time      0.0124: real time      0.0123
    ORTHCH:  cpu time      0.0023: real time      0.0023
       DOS:  cpu time      0.0002: real time      0.0002
    --------------------------------------------
      LOOP:  cpu time      1.0253: real time      0.8580

 eigenvalue-minimisations  :    13
 total energy-change (2. order) :-0.1074885E-06  ( 0.0000000E+00)
 number of electron       2.0000000 magnetization 
 augmentation part        0.0418630 magnetization 

 Free energy of the ion-electron system (eV)
  ---------------------------------------------------
  alpha Z        PSCENC =         0.00241580
  Ewald energy   TEWEN  =        16.97543784
  -Hartree energ DENC   =       -33.31981939
  -exchange      EXHF   =         0.00000000
  -V(xc)+E(xc)   XCENC  =         5.30131123
  PAW double counting   =        23.42610773      -23.47558036
  entropy T*S    EENTRO =        -0.00000000
  eigenvalues    EBANDS =       -20.65489893
  atomic energy  EATOM  =        24.97394176
  Solvation  Ediel_sol  =         0.00000000
  ---------------------------------------------------
  free energy    TOTEN  =        -6.77108431 eV

  energy without entropy =       -6.77108431  energy(sigma->0) =       -6.77108431


--------------------------------------------------------------------------------------------------------




 average (electrostatic) potential at core
  the test charge radii are     0.5201
  (the norm of the test charge is              1.0000)
       1 -41.6368       2 -41.6369
 
 
 
 E-fermi :  -9.1257     XC(G=0):  -0.1049     alpha+bet : -0.0137

 Fermi energy:        -9.1257235879

 k-point     1 :       0.0000    0.0000    0.0000
  band No.  band energies     occupation 
      1     -10.3274      2.00000
      2      -0.0850      0.00000
      3       0.0422      0.00000
      4       0.0818      0.00000
      5       0.3051      0.00000
      6       0.5219      0.00000
      7       0.7121      0.00000
      8       0.8341      0.00000


--------------------------------------------------------------------------------------------------------


 soft charge-density along one line, spin component            1
         0         1         2         3         4         5         6         7         8         9
 total charge-density along one line
 
 pseudopotential strength for first ion, spin component:            1
 -2.344  -4.039  -0.000   0.002  -0.001
 -4.039  -6.875  -0.000   0.005  -0.002
 -0.000  -0.000  -0.342  -0.000   0.000
  0.002   0.005  -0.000  -0.336  -0.002
 -0.001  -0.002   0.000  -0.002  -0.341
 total augmentation occupancy for first ion, spin component:            1
  2.903  -0.411   0.002  -0.355   0.107
 -0.411   0.058  -0.000   0.050  -0.015
  0.002  -0.000   0.000  -0.000   0.000
 -0.355   0.050  -0.000   0.043  -0.013
  0.107  -0.015   0.000  -0.013   0.004


------------------------ aborting loop because EDIFF is reached ----------------------------------------





 total charge

# of ion       s       p       d       tot
------------------------------------------
    1        0.607   0.028   0.000   0.635
    2        0.607   0.028   0.000   0.635
--------------------------------------------------
tot          1.214   0.056   0.000   1.271
 
    CHARGE:  cpu time      0.9337: real time      0.8553
    FORLOC:  cpu time      0.0171: real time      0.0170
    FORNL :  cpu time      4.9594: real time      4.2570
    STRESS:  cpu time     15.5291: real time     13.6698
    FORHAR:  cpu time      0.0455: real time      0.0194
    MIXING:  cpu time      0.1603: real time      0.0444
    OFIELD:  cpu time      0.0002: real time      0.0000

 ---------------------------------------------------------------------------------------------

         DFTD3 V3.0 Rev 1        
 Edisp (eV)   -0.00251

 E6    (eV) :    -0.0020
 E8    (eV) :    -0.0005
 % E8        : 21.22
    FORVDW:  cpu time      0.0131: real time      0.0028

  FORCE on cell =-STRESS in cart. coord.  units (eV):
  Direction    XX          YY          ZZ          XY          YZ          ZX
  --------------------------------------------------------------------------------------
  Alpha Z     0.00242     0.00242     0.00242
  Ewald       4.43759     2.77659     9.76126     0.02489    -0.08251    -5.30303
  Hartree    14.10161    13.85889     5.35931     0.00288    -0.00956    -0.61430
  E(xc)      -5.95862    -5.97700    -5.77533     0.00029    -0.00095    -0.06088
  Local     -27.73416   -26.48938   -17.74343    -0.01752     0.05810     3.73429
  n-local    -5.42914    -5.35044    -6.21467    -0.00123     0.00406     0.26091
  augment     0.27170     0.27762     0.21253    -0.00009     0.00031     0.01965
  Kinetic    20.27942    20.87256    14.36311    -0.00923     0.03057     1.96515
  Fock        0.00000     0.00000     0.00000     0.00000     0.00000     0.00000
  vdW         0.00007    -0.00003     0.00111     0.00000    -0.00001    -0.00033
  -------------------------------------------------------------------------------------
  Total      -0.02911    -0.02877    -0.03369    -0.00001     0.00002     0.00146
  in kB      -0.01156    -0.01143    -0.01338    -0.00000     0.00001     0.00058
  external pressure =       -0.01 kB  Pullay stress =        0.00 kB


 VOLUME and BASIS-vectors are now :
 -----------------------------------------------------------------------------
  energy-cutoff  :      520.00
  volume of cell :     4033.72
      direct lattice vectors                 reciprocal lattice vectors
    11.103800000  0.000000000  0.000000000     0.090059259  0.000000000  0.000000000
     0.000000000 11.200200000  0.000000000     0.000000000  0.089284120  0.000000000
     0.000000000  0.000000000 32.434600000     0.000000000  0.000000000  0.030831273

  length of vectors
    11.103800000 11.200200000 32.434600000     0.090059259  0.089284120  0.030831273


 FORCES acting on ions
    electron-ion (+dipol)            ewald-force                    non-local-force                 convergence-correction
 -----------------------------------------------------------------------------------------------
   0.592E+01 0.921E-01 -.197E+02   -.738E+01 -.115E+00 0.245E+02   0.146E+01 0.228E-01 -.484E+01   0.213E-06 0.295E-08 -.108E-05
   -.592E+01 -.921E-01 0.197E+02   0.738E+01 0.115E+00 -.245E+02   -.146E+01 -.228E-01 0.484E+01   -.213E-06 -.303E-08 0.108E-05
 -----------------------------------------------------------------------------------------------
   -.618E-07 -.542E-07 -.114E-06   0.000E+00 0.000E+00 0.000E+00   0.222E-15 0.000E+00 0.000E+00   -.180E-10 -.868E-10 0.833E-10
 
 
 POSITION                                       TOTAL-FORCE (eV/Angst)
 -----------------------------------------------------------------------------------
      5.21403      7.08065     17.08968        -0.000889     -0.000015      0.003132
      5.43085      7.08402     16.37147         0.000889      0.000015     -0.003132
 -----------------------------------------------------------------------------------
    total drift:                               -0.000000     -0.000000     -0.000000


--------------------------------------------------------------------------------------------------------



  FREE ENERGIE OF THE ION-ELECTRON SYSTEM (eV)
  ---------------------------------------------------
  free  energy   TOTEN  =        -6.77359872 eV

  energy  without entropy=       -6.77359872  energy(sigma->0) =       -6.77359872
 
 d Force = 0.5495028E-05[ 0.172E-05, 0.927E-05]  d Energy = 0.6230313E-05-0.735E-06
 d Force = 0.1358278E-01[ 0.136E-01, 0.136E-01]  d Ewald  = 0.1358278E-01 0.339E-08


--------------------------------------------------------------------------------------------------------


    POTLOK:  cpu time      0.9159: real time      0.8344


--------------------------------------------------------------------------------------------------------




--------------------------------------------------------------------------------------------------------


  
 reached required accuracy - stopping structural energy minimisation
 writing wavefunctions
     LOOP+:  cpu time     34.7817: real time     29.8719
    4ORBIT:  cpu time      0.0000: real time      0.0000



 total charge

# of ion       s       p       d       tot
------------------------------------------
    1        0.607   0.028   0.000   0.635
    2        0.607   0.028   0.000   0.635
--------------------------------------------------
tot          1.214   0.056   0.000   1.271
 

 total amount of memory used by VASP MPI-rank0   803365. kBytes
=======================================================================

   base      :      30000. kBytes
   nonl-proj :       7818. kBytes
   fftplans  :     521602. kBytes
   grid      :     240468. kBytes
   one-center:          2. kBytes
   wavefun   :       3475. kBytes
 
  
  
 General timing and accounting informations for this job:
 ========================================================
  
                  Total CPU time used (sec):      695.383
                            User time (sec):      594.328
                          System time (sec):      101.055
                         Elapsed time (sec):      589.402
  
                   Maximum memory used (kb):     3514080.
                   Average memory used (kb):          N/A
  
                          Minor page faults:      1528920
                          Major page faults:          146
                 Voluntary context switches:       131356
