       N       E                     dE             d eps       ncg     rms          rms(c)
DAV:   1     0.805614634144E+01    0.80561E+01   -0.17441E+02    40   0.504E+01
DAV:   2     0.427597527576E+01   -0.37802E+01   -0.37740E+01    40   0.168E+01
DAV:   3     0.352504378338E+01   -0.75093E+00   -0.72366E+00    56   0.693E+00
DAV:   4     0.351157634452E+01   -0.13467E-01   -0.13467E-01    40   0.768E-01
DAV:   5     0.351120814619E+01   -0.36820E-03   -0.36820E-03    48   0.152E-01    0.187E+00
RMM:   6     0.686797923046E+01    0.33568E+01   -0.19968E-01    32   0.129E+00    0.104E+00
RMM:   7     0.482559164116E+01   -0.20424E+01   -0.62591E-02    32   0.696E-01    0.687E-01
RMM:   8     0.399459185001E+01   -0.83100E+00   -0.10910E-01    33   0.869E-01    0.296E-01
RMM:   9     0.393561129382E+01   -0.58981E-01   -0.50734E-03    32   0.315E-01    0.162E-01
RMM:  10     0.360717410035E+01   -0.32844E+00   -0.94164E-04    32   0.110E-01    0.923E-02
RMM:  11     0.343450062042E+01   -0.17267E+00   -0.14071E-03    32   0.819E-02    0.331E-02
RMM:  12     0.341160867790E+01   -0.22892E-01   -0.95869E-04    32   0.561E-02    0.271E-02
RMM:  13     0.340185292300E+01   -0.97558E-02   -0.99698E-04    32   0.466E-02    0.166E-02
RMM:  14     0.339498318471E+01   -0.68697E-02   -0.13217E-03    32   0.531E-02    0.932E-03
RMM:  15     0.339459126681E+01   -0.39192E-03   -0.51406E-04    32   0.306E-02    0.718E-03
RMM:  16     0.339229137307E+01   -0.22999E-02   -0.31414E-04    32   0.290E-02    0.440E-03
RMM:  17     0.339206498267E+01   -0.22639E-03   -0.30960E-04    32   0.244E-02    0.265E-03
RMM:  18     0.339223076605E+01    0.16578E-03   -0.19100E-04    32   0.150E-02    0.173E-03
RMM:  19     0.338909829046E+01   -0.31325E-02   -0.30121E-05    32   0.864E-03    0.134E-03
RMM:  20     0.338852612902E+01   -0.57216E-03   -0.29144E-06    31   0.564E-03    0.752E-04
RMM:  21     0.338821066926E+01   -0.31546E-03   -0.37918E-06    31   0.366E-03    0.413E-04
RMM:  22     0.338809701570E+01   -0.11365E-03   -0.17246E-06    31   0.216E-03    0.269E-04
RMM:  23     0.338801780662E+01   -0.79209E-04   -0.60603E-07    30   0.181E-03    0.168E-04
RMM:  24     0.338787279670E+01   -0.14501E-03   -0.41637E-07    30   0.152E-03    0.117E-04
RMM:  25     0.338787478694E+01    0.19902E-05   -0.18823E-07    29   0.875E-04    0.898E-05
RMM:  26     0.338787145451E+01   -0.33324E-05   -0.91618E-08    29   0.726E-04    0.540E-05
RMM:  27     0.338779974407E+01   -0.71710E-04   -0.69957E-08    29   0.711E-04    0.346E-05
RMM:  28     0.338776230649E+01   -0.37438E-04   -0.37084E-08    29   0.652E-04    0.238E-05
RMM:  29     0.338776803424E+01    0.57277E-05   -0.17667E-08    29   0.560E-04    0.216E-05
RMM:  30     0.338775677338E+01   -0.11261E-04   -0.99197E-09    28   0.501E-04    0.189E-05
RMM:  31     0.338774884903E+01   -0.79244E-05   -0.89920E-09    28   0.521E-04    0.183E-05
RMM:  32     0.338774783946E+01   -0.10096E-05   -0.51936E-09    28   0.441E-04    0.179E-05
RMM:  33     0.338774781251E+01   -0.26955E-07   -0.36093E-14    26   0.399E-04
   1 F= 0.33877478E+01 E0= 0.33877480E+01  d E =0.338775E+01  mag=     2.0000
       N       E                     dE             d eps       ncg     rms          rms(c)
DAV:   1     0.985675239932E+01    0.64690E+01   -0.15885E+02    48   0.464E+01    0.731E+00
RMM:   2     0.657382937569E+01   -0.32829E+01   -0.91158E+00    32   0.128E+01    0.290E+00
RMM:   3    -0.102864067638E+01   -0.76025E+01   -0.29405E+00    32   0.740E+00    0.108E+00
RMM:   4    -0.441046240238E+00    0.58759E+00   -0.17143E-01    32   0.195E+00    0.831E-01
RMM:   5    -0.643263809476E+00   -0.20222E+00   -0.29915E-02    32   0.813E-01    0.546E-01
RMM:   6    -0.147271616948E+01   -0.82945E+00   -0.28278E-02    32   0.690E-01    0.226E-01
RMM:   7    -0.174978577853E+01   -0.27707E+00   -0.11517E-02    32   0.411E-01    0.204E-01
RMM:   8    -0.182368476798E+01   -0.73899E-01   -0.96789E-04    32   0.132E-01    0.664E-02
RMM:   9    -0.194331535499E+01   -0.11963E+00   -0.10701E-03    32   0.113E-01    0.593E-02
RMM:  10    -0.195053624742E+01   -0.72209E-02   -0.29579E-04    32   0.540E-02    0.295E-02
RMM:  11    -0.198290798232E+01   -0.32372E-01   -0.65842E-04    32   0.735E-02    0.118E-02
RMM:  12    -0.198940750975E+01   -0.64995E-02   -0.32663E-04    32   0.556E-02    0.169E-02
RMM:  13    -0.199978110131E+01   -0.10374E-01   -0.13016E-04    32   0.308E-02    0.888E-03
RMM:  14    -0.200233191333E+01   -0.25508E-02   -0.73675E-05    32   0.216E-02    0.359E-03
RMM:  15    -0.200451030494E+01   -0.21784E-02   -0.29583E-05    32   0.125E-02    0.360E-03
RMM:  16    -0.200469603738E+01   -0.18573E-03   -0.18631E-05    32   0.867E-03    0.164E-03
RMM:  17    -0.200504322308E+01   -0.34719E-03   -0.80588E-06    32   0.585E-03    0.128E-03
RMM:  18    -0.200561203702E+01   -0.56881E-03   -0.23519E-06    31   0.302E-03    0.683E-04
RMM:  19    -0.200591653306E+01   -0.30450E-03   -0.90383E-07    31   0.189E-03    0.229E-04
RMM:  20    -0.200588901068E+01    0.27522E-04   -0.33178E-07    30   0.120E-03    0.128E-04
RMM:  21    -0.200599721322E+01   -0.10820E-03   -0.53530E-08    29   0.622E-04    0.133E-04
RMM:  22    -0.200599771376E+01   -0.50054E-06    0.00000E+00    28   0.383E-04
   2 F= -.20059977E+01 E0= -.20059977E+01  d E =-.539375E+01  mag=     2.0000
       N       E                     dE             d eps       ncg     rms          rms(c)
DAV:   1    -0.106318747673E+01    0.94281E+00   -0.52547E-01    40   0.334E+00    0.434E-01
RMM:   2    -0.159442246014E+01   -0.53123E+00   -0.55024E-03    32   0.475E-01    0.197E-01
RMM:   3    -0.199505349116E+01   -0.40063E+00   -0.78354E-04    32   0.141E-01    0.335E-02
RMM:   4    -0.199999506941E+01   -0.49416E-02   -0.19135E-04    32   0.686E-02    0.193E-02
RMM:   5    -0.201562987315E+01   -0.15635E-01   -0.65892E-05    32   0.353E-02    0.924E-03
RMM:   6    -0.203498978248E+01   -0.19360E-01   -0.10919E-05    32   0.157E-02    0.297E-03
RMM:   7    -0.203683578685E+01   -0.18460E-02   -0.19829E-06    32   0.726E-03    0.130E-03
RMM:   8    -0.203861456253E+01   -0.17788E-02   -0.54059E-07    30   0.406E-03    0.469E-04
RMM:   9    -0.203950246887E+01   -0.88791E-03   -0.14276E-07    30   0.176E-03    0.297E-04
RMM:  10    -0.203985823846E+01   -0.35577E-03   -0.62698E-08    30   0.101E-03    0.215E-04
RMM:  11    -0.204012094147E+01   -0.26270E-03   -0.66490E-08    30   0.799E-04    0.129E-04
RMM:  12    -0.204013214712E+01   -0.11206E-04   -0.41535E-08    30   0.521E-04    0.844E-05
RMM:  13    -0.204014785058E+01   -0.15703E-04   -0.14337E-08    29   0.396E-04    0.619E-05
RMM:  14    -0.204022269874E+01   -0.74848E-04   -0.33573E-08    30   0.518E-04    0.388E-05
RMM:  15    -0.204022572823E+01   -0.30295E-05    0.00000E+00    28   0.287E-04    0.281E-05
RMM:  16    -0.204024933172E+01   -0.23603E-04    0.00000E+00    28   0.353E-04    0.201E-05
RMM:  17    -0.204026146055E+01   -0.12129E-04   -0.15927E-08    29   0.395E-04    0.163E-05
RMM:  18    -0.204026155790E+01   -0.97355E-07    0.00000E+00    28   0.260E-04
   3 F= -.20402616E+01 E0= -.20402616E+01  d E =-.542801E+01  mag=     2.0000
       N       E                     dE             d eps       ncg     rms          rms(c)
DAV:   1    -0.147058639527E+00    0.18932E+01   -0.20977E+00    40   0.667E+00    0.865E-01
RMM:   2    -0.119450008442E+01   -0.10474E+01   -0.22294E-02    32   0.934E-01    0.393E-01
RMM:   3    -0.200061182153E+01   -0.80611E+00   -0.36006E-03    32   0.292E-01    0.671E-02
RMM:   4    -0.201142941150E+01   -0.10818E-01   -0.84106E-04    32   0.141E-01    0.397E-02
RMM:   5    -0.204165903857E+01   -0.30230E-01   -0.24231E-04    32   0.684E-02    0.208E-02
RMM:   6    -0.208399211204E+01   -0.42333E-01   -0.40545E-05    32   0.310E-02    0.545E-03
RMM:   7    -0.208904144336E+01   -0.50493E-02   -0.76271E-06    32   0.141E-02    0.223E-03
RMM:   8    -0.209168490472E+01   -0.26435E-02   -0.18692E-06    32   0.755E-03    0.961E-04
RMM:   9    -0.209336629209E+01   -0.16814E-02   -0.55821E-07    31   0.347E-03    0.546E-04
RMM:  10    -0.209396457816E+01   -0.59829E-03   -0.23962E-07    30   0.221E-03    0.426E-04
RMM:  11    -0.209443954906E+01   -0.47497E-03   -0.17756E-07    30   0.151E-03    0.247E-04
RMM:  12    -0.209448568046E+01   -0.46131E-04   -0.10171E-07    30   0.958E-04    0.162E-04
RMM:  13    -0.209451358177E+01   -0.27901E-04   -0.76862E-08    30   0.914E-04    0.118E-04
RMM:  14    -0.209464587736E+01   -0.13230E-03   -0.61584E-08    30   0.105E-03    0.733E-05
RMM:  15    -0.209468326050E+01   -0.37383E-04   -0.35935E-08    30   0.738E-04    0.457E-05
RMM:  16    -0.209470300510E+01   -0.19745E-04   -0.16354E-08    29   0.473E-04    0.359E-05
RMM:  17    -0.209472626585E+01   -0.23261E-04    0.00000E+00    28   0.329E-04    0.212E-05
RMM:  18    -0.209473277717E+01   -0.65113E-05    0.00000E+00    28   0.362E-04    0.173E-05
RMM:  19    -0.209474574744E+01   -0.12970E-04    0.00000E+00    28   0.386E-04    0.151E-05
RMM:  20    -0.209474541518E+01    0.33226E-06    0.00000E+00    28   0.392E-04
   4 F= -.20947454E+01 E0= -.20947454E+01  d E =-.548249E+01  mag=     2.0000
       N       E                     dE             d eps       ncg     rms          rms(c)
DAV:   1     0.167671228431E+01    0.37715E+01   -0.82626E+00    40   0.132E+01    0.171E+00
RMM:   2    -0.342234986458E+00   -0.20189E+01   -0.10489E-01    32   0.186E+00    0.772E-01
RMM:   3    -0.195751378604E+01   -0.16153E+01   -0.19595E-02    32   0.658E-01    0.139E-01
RMM:   4    -0.197793091375E+01   -0.20417E-01   -0.39700E-03    32   0.304E-01    0.878E-02
RMM:   5    -0.203661248244E+01   -0.58682E-01   -0.90757E-04    32   0.137E-01    0.518E-02
RMM:   6    -0.214269148554E+01   -0.10608E+00   -0.18155E-04    32   0.658E-02    0.913E-03
RMM:   7    -0.215690339370E+01   -0.14212E-01   -0.33930E-05    32   0.297E-02    0.342E-03
RMM:   8    -0.215900512500E+01   -0.21017E-02   -0.67909E-06    32   0.143E-02    0.200E-03
RMM:   9    -0.216162298286E+01   -0.26179E-02   -0.20271E-06    32   0.713E-03    0.107E-03
RMM:  10    -0.216204925454E+01   -0.42627E-03   -0.84945E-07    31   0.469E-03    0.749E-04
RMM:  11    -0.216311825011E+01   -0.10690E-02   -0.63955E-07    31   0.360E-03    0.494E-04
RMM:  12    -0.216335846829E+01   -0.24022E-03   -0.31708E-07    30   0.219E-03    0.310E-04
RMM:  13    -0.216350486059E+01   -0.14639E-03   -0.14250E-07    30   0.155E-03    0.224E-04
RMM:  14    -0.216369679682E+01   -0.19194E-03   -0.17391E-07    30   0.146E-03    0.166E-04
RMM:  15    -0.216371227044E+01   -0.15474E-04   -0.69260E-08    30   0.105E-03    0.785E-05
RMM:  16    -0.216377598742E+01   -0.63717E-04   -0.18092E-08    29   0.509E-04    0.427E-05
RMM:  17    -0.216380947329E+01   -0.33486E-04   -0.11042E-08    29   0.397E-04    0.259E-05
RMM:  18    -0.216383589368E+01   -0.26420E-04    0.00000E+00    28   0.303E-04    0.178E-05
RMM:  19    -0.216384088611E+01   -0.49924E-05    0.00000E+00    28   0.317E-04    0.146E-05
RMM:  20    -0.216384622554E+01   -0.53394E-05    0.00000E+00    28   0.326E-04    0.134E-05
RMM:  21    -0.216384824892E+01   -0.20234E-05   -0.12501E-08    29   0.336E-04    0.135E-05
RMM:  22    -0.216384687030E+01    0.13786E-05    0.00000E+00    28   0.188E-04    0.131E-05
RMM:  23    -0.216384756220E+01   -0.69189E-06    0.00000E+00    28   0.189E-04
   5 F= -.21638476E+01 E0= -.21638476E+01  d E =-.555160E+01  mag=     2.0000
       N       E                     dE             d eps       ncg     rms          rms(c)
DAV:   1     0.497597874178E+01    0.71398E+01   -0.30979E+01    48   0.254E+01    0.324E+00
RMM:   2     0.142786875610E+01   -0.35481E+01   -0.63367E-01    32   0.380E+00    0.144E+00
RMM:   3    -0.172545173458E+01   -0.31533E+01   -0.12635E-01    32   0.163E+00    0.301E-01
RMM:   4    -0.176403931037E+01   -0.38588E-01   -0.21850E-02    32   0.712E-01    0.214E-01
RMM:   5    -0.187381894979E+01   -0.10978E+00   -0.38822E-03    32   0.304E-01    0.143E-01
RMM:   6    -0.217945231278E+01   -0.30563E+00   -0.87271E-04    32   0.143E-01    0.188E-02
RMM:   7    -0.220378587385E+01   -0.24334E-01   -0.16618E-04    32   0.518E-02    0.621E-03
RMM:   8    -0.221162818856E+01   -0.78423E-02   -0.28955E-05    32   0.252E-02    0.422E-03
RMM:   9    -0.221523177217E+01   -0.36036E-02   -0.54505E-06    32   0.118E-02    0.242E-03
RMM:  10    -0.221561244331E+01   -0.38067E-03   -0.23744E-06    32   0.852E-03    0.168E-03
RMM:  11    -0.221714302463E+01   -0.15306E-02   -0.12627E-06    32   0.564E-03    0.152E-03
RMM:  12    -0.221755211720E+01   -0.40909E-03   -0.82481E-07    32   0.605E-03    0.708E-04
RMM:  13    -0.221853152884E+01   -0.97941E-03   -0.76674E-07    32   0.480E-03    0.587E-04
RMM:  14    -0.221894207312E+01   -0.41054E-03   -0.67246E-07    31   0.397E-03    0.333E-04
RMM:  15    -0.221907156614E+01   -0.12949E-03   -0.14970E-07    30   0.190E-03    0.160E-04
RMM:  16    -0.221913788072E+01   -0.66315E-04   -0.21342E-08    30   0.786E-04    0.102E-04
RMM:  17    -0.221918328998E+01   -0.45409E-04    0.00000E+00    28   0.334E-04    0.325E-05
RMM:  18    -0.221921241669E+01   -0.29127E-04    0.00000E+00    28   0.361E-04    0.148E-05
RMM:  19    -0.221922235180E+01   -0.99351E-05    0.00000E+00    28   0.363E-04    0.730E-06
RMM:  20    -0.221922705473E+01   -0.47029E-05    0.00000E+00    28   0.370E-04    0.629E-06
RMM:  21    -0.221922902524E+01   -0.19705E-05    0.00000E+00    28   0.369E-04    0.559E-06
RMM:  22    -0.221923024074E+01   -0.12155E-05    0.00000E+00    28   0.370E-04    0.509E-06
RMM:  23    -0.221923090832E+01   -0.66759E-06    0.00000E+00    28   0.370E-04
   6 F= -.22192309E+01 E0= -.22192309E+01  d E =-.560698E+01  mag=     2.0000
       N       E                     dE             d eps       ncg     rms          rms(c)
DAV:   1     0.490162874533E+00    0.27094E+01   -0.43744E+00    48   0.962E+00    0.124E+00
RMM:   2    -0.897296729353E+00   -0.13875E+01   -0.55990E-02    32   0.138E+00    0.566E-01
RMM:   3    -0.205108959108E+01   -0.11538E+01   -0.10063E-02    32   0.468E-01    0.102E-01
RMM:   4    -0.207675407668E+01   -0.25664E-01   -0.20475E-03    32   0.214E-01    0.668E-02
RMM:   5    -0.212462711888E+01   -0.47873E-01   -0.51858E-04    32   0.952E-02    0.388E-02
RMM:   6    -0.221367311871E+01   -0.89046E-01   -0.96091E-05    32   0.430E-02    0.596E-03
RMM:   7    -0.222217185933E+01   -0.84987E-02   -0.15458E-05    32   0.193E-02    0.221E-03
RMM:   8    -0.222406393584E+01   -0.18921E-02   -0.28955E-06    32   0.883E-03    0.148E-03
RMM:   9    -0.222539515006E+01   -0.13312E-02   -0.81512E-07    31   0.530E-03    0.883E-04
RMM:  10    -0.222561150310E+01   -0.21635E-03   -0.28823E-07    30   0.300E-03    0.578E-04
RMM:  11    -0.222623650226E+01   -0.62500E-03   -0.16305E-07    30   0.232E-03    0.379E-04
RMM:  12    -0.222642589597E+01   -0.18939E-03   -0.90379E-08    30   0.204E-03    0.264E-04
RMM:  13    -0.222652296001E+01   -0.97064E-04   -0.12095E-07    30   0.209E-03    0.184E-04
RMM:  14    -0.222662324330E+01   -0.10028E-03   -0.88746E-08    30   0.142E-03    0.119E-04
RMM:  15    -0.222665549047E+01   -0.32247E-04   -0.15633E-08    30   0.771E-04    0.496E-05
RMM:  16    -0.222669577762E+01   -0.40287E-04   -0.45375E-09    30   0.574E-04    0.294E-05
RMM:  17    -0.222672222214E+01   -0.26445E-04    0.00000E+00    28   0.217E-04    0.198E-05
RMM:  18    -0.222674727721E+01   -0.25055E-04    0.00000E+00    28   0.240E-04    0.114E-05
RMM:  19    -0.222675105575E+01   -0.37785E-05    0.00000E+00    28   0.243E-04    0.105E-05
RMM:  20    -0.222675223298E+01   -0.11772E-05    0.00000E+00    27   0.247E-04    0.102E-05
RMM:  21    -0.222675476705E+01   -0.25341E-05    0.00000E+00    28   0.247E-04    0.101E-05
RMM:  22    -0.222675476586E+01    0.11914E-08    0.00000E+00    27   0.249E-04
   7 F= -.22267548E+01 E0= -.22267548E+01  d E =-.561450E+01  mag=     2.0000
       N       E                     dE             d eps       ncg     rms          rms(c)
DAV:   1     0.310001457720E+01    0.53268E+01   -0.16913E+01    40   0.189E+01    0.241E+00
RMM:   2     0.441086507314E+00   -0.26589E+01   -0.28946E-01    32   0.278E+00    0.109E+00
RMM:   3    -0.184727100104E+01   -0.22884E+01   -0.55967E-02    32   0.109E+00    0.217E-01
RMM:   4    -0.189334564562E+01   -0.46075E-01   -0.10014E-02    32   0.481E-01    0.153E-01
RMM:   5    -0.198588305885E+01   -0.92537E-01   -0.19143E-03    32   0.201E-01    0.965E-02
RMM:   6    -0.221219308217E+01   -0.22631E+00   -0.45849E-04    32   0.958E-02    0.117E-02
RMM:   7    -0.222367612625E+01   -0.11483E-01   -0.85022E-05    32   0.397E-02    0.464E-03
RMM:   8    -0.222784887346E+01   -0.41727E-02   -0.11672E-05    32   0.153E-02    0.337E-03
RMM:   9    -0.223091271157E+01   -0.30638E-02   -0.38867E-06    32   0.110E-02    0.199E-03
RMM:  10    -0.223098453849E+01   -0.71827E-04   -0.21425E-06    32   0.823E-03    0.145E-03
RMM:  11    -0.223155510414E+01   -0.57057E-03   -0.55605E-07    31   0.434E-03    0.100E-03
RMM:  12    -0.223287917319E+01   -0.13241E-02   -0.62621E-07    31   0.511E-03    0.623E-04
RMM:  13    -0.223320693812E+01   -0.32776E-03   -0.53131E-07    31   0.415E-03    0.498E-04
RMM:  14    -0.223339108568E+01   -0.18415E-03   -0.30140E-07    30   0.288E-03    0.230E-04
RMM:  15    -0.223347398587E+01   -0.82900E-04   -0.76540E-08    30   0.121E-03    0.133E-04
RMM:  16    -0.223356823542E+01   -0.94250E-04   -0.13382E-08    30   0.473E-04    0.702E-05
RMM:  17    -0.223361721980E+01   -0.48984E-04    0.00000E+00    28   0.248E-04    0.337E-05
RMM:  18    -0.223365191557E+01   -0.34696E-04    0.00000E+00    28   0.274E-04    0.180E-05
RMM:  19    -0.223366263630E+01   -0.10721E-04    0.00000E+00    28   0.285E-04    0.106E-05
RMM:  20    -0.223366667279E+01   -0.40365E-05    0.00000E+00    28   0.293E-04    0.955E-06
RMM:  21    -0.223367074978E+01   -0.40770E-05    0.00000E+00    28   0.303E-04    0.765E-06
RMM:  22    -0.223367459199E+01   -0.38422E-05    0.00000E+00    28   0.304E-04    0.745E-06
RMM:  23    -0.223367536768E+01   -0.77569E-06    0.00000E+00    28   0.305E-04
   8 F= -.22336754E+01 E0= -.22336754E+01  d E =-.562142E+01  mag=     2.0000
       N       E                     dE             d eps       ncg     rms          rms(c)
DAV:   1     0.251378952530E+00    0.24851E+01   -0.37602E+00    40   0.891E+00    0.115E+00
RMM:   2    -0.101337355144E+01   -0.12648E+01   -0.46823E-02    32   0.127E+00    0.525E-01
RMM:   3    -0.206642181040E+01   -0.10530E+01   -0.81075E-03    32   0.423E-01    0.954E-02
RMM:   4    -0.209096269735E+01   -0.24541E-01   -0.16702E-03    32   0.194E-01    0.625E-02
RMM:   5    -0.213968645246E+01   -0.48724E-01   -0.45285E-04    32   0.865E-02    0.351E-02
RMM:   6    -0.222583214272E+01   -0.86146E-01   -0.91540E-05    32   0.396E-02    0.554E-03
RMM:   7    -0.223017035228E+01   -0.43382E-02   -0.14477E-05    32   0.183E-02    0.213E-03
RMM:   8    -0.223259816125E+01   -0.24278E-02   -0.29429E-06    32   0.848E-03    0.154E-03
RMM:   9    -0.223351054503E+01   -0.91238E-03   -0.13196E-06    32   0.662E-03    0.944E-04
RMM:  10    -0.223379423927E+01   -0.28369E-03   -0.43644E-07    30   0.397E-03    0.624E-04
RMM:  11    -0.223438540133E+01   -0.59116E-03   -0.26153E-07    30   0.317E-03    0.410E-04
RMM:  12    -0.223460796249E+01   -0.22256E-03   -0.12941E-07    30   0.209E-03    0.296E-04
RMM:  13    -0.223468400119E+01   -0.76039E-04   -0.14140E-07    30   0.199E-03    0.196E-04
RMM:  14    -0.223481079786E+01   -0.12680E-03   -0.10205E-07    30   0.144E-03    0.127E-04
RMM:  15    -0.223481246577E+01   -0.16679E-05   -0.21872E-08    30   0.708E-04    0.552E-05
RMM:  16    -0.223487397460E+01   -0.61509E-04    0.00000E+00    28   0.314E-04    0.242E-05
RMM:  17    -0.223491227593E+01   -0.38301E-04    0.00000E+00    28   0.314E-04    0.157E-05
RMM:  18    -0.223492544226E+01   -0.13166E-04    0.00000E+00    28   0.319E-04    0.100E-05
RMM:  19    -0.223493178853E+01   -0.63463E-05    0.00000E+00    28   0.321E-04    0.617E-06
RMM:  20    -0.223493516691E+01   -0.33784E-05    0.00000E+00    28   0.321E-04    0.577E-06
RMM:  21    -0.223493710941E+01   -0.19425E-05    0.00000E+00    28   0.322E-04    0.538E-06
RMM:  22    -0.223493834452E+01   -0.12351E-05    0.00000E+00    28   0.323E-04    0.514E-06
RMM:  23    -0.223493857486E+01   -0.23034E-06    0.00000E+00    27   0.323E-04
   9 F= -.22349386E+01 E0= -.22349386E+01  d E =-.562269E+01  mag=     2.0000
