<?xml version="1.0" encoding="ISO-8859-1"?>
<modeling>
 <generator>
  <i name="program" type="string">vasp </i>
  <i name="version" type="string">6.3.2  </i>
  <i name="subversion" type="string">27Jun22 (build Sep  5 2022 18:50:32) complex                          parallel </i>
  <i name="platform" type="string">LinuxNV </i>
  <i name="date" type="string">2023 01 14 </i>
  <i name="time" type="string">18:20:01 </i>
 </generator>
 <incar>
  <i type="string" name="PREC">Accurate   (Precision level: Normal or Accurate, set Accurate when perform structure lattice relaxation calculation)</i>
  <i type="string" name="ALGO">Fast</i>
  <i type="logical" name="ADDGRID"> T  </i>
  <i type="int" name="ISPIN">     2</i>
  <i type="int" name="NELM">   150</i>
  <i type="int" name="NELMIN">     6</i>
  <i type="int" name="IBRION">     2</i>
  <i name="EDIFF">      0.00000100</i>
  <i name="EDIFFG">     -0.01000000</i>
  <i type="int" name="NSW">   100</i>
  <i type="int" name="ISIF">     2</i>
  <i name="ENCUT">    520.00000000</i>
  <i type="logical" name="LREAL"> F  </i>
  <i type="int" name="ISMEAR">    -1</i>
  <i name="SIGMA">      0.05000000</i>
  <i type="logical" name="LWAVE"> T  </i>
  <i type="logical" name="LCHARG"> T  </i>
  <i type="int" name="LORBIT">    11</i>
 </incar>
 <primitive_cell>
  <structure name="primitive_cell" >
   <crystal>
    <varray name="basis" >
     <v>      11.10380000       0.00000000       0.00000000 </v>
     <v>       0.00000000      11.20020000       0.00000000 </v>
     <v>       0.00000000       0.00000000      32.43460000 </v>
    </varray>
    <i name="volume">   4033.72191804 </i>
    <varray name="rec_basis" >
     <v>       0.09005926       0.00000000       0.00000000 </v>
     <v>       0.00000000       0.08928412       0.00000000 </v>
     <v>       0.00000000       0.00000000       0.03083127 </v>
    </varray>
   </crystal>
   <varray name="positions" >
    <v>       0.48908000       0.63249000       0.50492000 </v>
    <v>       0.46959000       0.63219000       0.52673000 </v>
   </varray>
  </structure>
  <varray name="primitive_index" >
   <v type="int" >        1 </v>
   <v type="int" >        2 </v>
  </varray>
 </primitive_cell>
 <kpoints>
  <generation param="Monkhorst-Pack">
   <v type="int" name="divisions">       1        1        1 </v>
   <v name="usershift">      0.00000000       0.00000000       0.00000000 </v>
   <v name="genvec1">      1.00000000       0.00000000       0.00000000 </v>
   <v name="genvec2">      0.00000000       1.00000000       0.00000000 </v>
   <v name="genvec3">      0.00000000       0.00000000       1.00000000 </v>
   <v name="shift">      0.00000000       0.00000000       0.00000000 </v>
  </generation>
  <varray name="kpointlist" >
   <v>       0.00000000       0.00000000       0.00000000 </v>
  </varray>
  <varray name="weights" >
   <v>       1.00000000 </v>
  </varray>
 </kpoints>
 <parameters>
  <separator name="general" >
   <i type="string" name="SYSTEM">unknown system</i>
   <i type="logical" name="LCOMPAT"> F  </i>
  </separator>
  <separator name="electronic" >
   <i type="string" name="PREC">accura</i>
   <i name="ENMAX">    520.00000000</i>
   <i name="ENAUG">    400.00000000</i>
   <i name="EDIFF">      0.00000100</i>
   <i type="int" name="IALGO">    68</i>
   <i type="int" name="IWAVPR">    11</i>
   <i type="int" name="NBANDS">     8</i>
   <i type="int" name="NBANDSLOW">    -1</i>
   <i type="int" name="NBANDSHIGH">    -1</i>
   <i name="NELECT">      2.00000000</i>
   <i type="int" name="TURBO">     0</i>
   <i type="int" name="IRESTART">     0</i>
   <i type="int" name="NREBOOT">     0</i>
   <i type="int" name="NMIN">     0</i>
   <i name="EREF">      0.00000000</i>
   <separator name="electronic smearing" >
    <i type="int" name="ISMEAR">    -1</i>
    <i name="SIGMA">      0.05000000</i>
    <i name="KSPACING">      0.50000000</i>
    <i type="logical" name="KGAMMA"> T  </i>
    <i type="logical" name="KBLOWUP"> T  </i>
   </separator>
   <separator name="electronic projectors" >
    <i type="logical" name="LREAL"> F  </i>
    <v name="ROPT">      0.00000000</v>
    <i type="int" name="LMAXPAW">  -100</i>
    <i type="int" name="LMAXMIX">     2</i>
    <i type="logical" name="NLSPLINE"> F  </i>
   </separator>
   <separator name="electronic startup" >
    <i type="int" name="ISTART">     0</i>
    <i type="int" name="ICHARG">     2</i>
    <i type="int" name="INIWAV">     1</i>
   </separator>
   <separator name="electronic spin" >
    <i type="int" name="ISPIN">     2</i>
    <i type="logical" name="LNONCOLLINEAR"> F  </i>
    <v name="MAGMOM">      1.00000000      1.00000000</v>
    <i name="NUPDOWN">     -1.00000000</i>
    <i type="logical" name="LSORBIT"> F  </i>
    <v name="SAXIS">      0.00000000      0.00000000      1.00000000</v>
    <i type="logical" name="LSPIRAL"> F  </i>
    <v name="QSPIRAL">      0.00000000      0.00000000      0.00000000</v>
    <i type="logical" name="LZEROZ"> F  </i>
   </separator>
   <separator name="electronic exchange-correlation" >
    <i type="logical" name="LASPH"> F  </i>
    <i type="logical" name="LMETAGGA"> F  </i>
   </separator>
   <separator name="electronic convergence" >
    <i type="int" name="NELM">   150</i>
    <i type="int" name="NELMDL">    -5</i>
    <i type="int" name="NELMIN">     6</i>
    <i name="ENINI">    520.00000000</i>
    <separator name="electronic convergence detail" >
     <i type="logical" name="LDIAG"> T  </i>
     <i type="logical" name="LSUBROT"> F  </i>
     <i name="WEIMIN">      0.00100000</i>
     <i name="EBREAK">      0.00000003</i>
     <i name="DEPER">      0.30000000</i>
     <i type="int" name="NRMM">     4</i>
     <i name="TIME">      0.40000000</i>
    </separator>
   </separator>
   <separator name="electronic mixer" >
    <i name="AMIX">      0.40000000</i>
    <i name="BMIX">      1.00000000</i>
    <i name="AMIN">      0.10000000</i>
    <i name="AMIX_MAG">      1.60000000</i>
    <i name="BMIX_MAG">      1.00000000</i>
    <separator name="electronic mixer details" >
     <i type="int" name="IMIX">     4</i>
     <i type="logical" name="MIXFIRST"> F  </i>
     <i type="int" name="MAXMIX">   -45</i>
     <i name="WC">    100.00000000</i>
     <i type="int" name="INIMIX">     1</i>
     <i type="int" name="MIXPRE">     1</i>
     <i type="int" name="MREMOVE">     5</i>
    </separator>
   </separator>
   <separator name="electronic dipolcorrection" >
    <i type="logical" name="LDIPOL"> F  </i>
    <i type="logical" name="LMONO"> F  </i>
    <i type="int" name="IDIPOL">     0</i>
    <i name="EPSILON">      1.00000000</i>
    <v name="DIPOL">   -100.00000000   -100.00000000   -100.00000000</v>
    <i name="EFIELD">      0.00000000</i>
   </separator>
  </separator>
  <separator name="grids" >
   <i type="int" name="NGX">    84</i>
   <i type="int" name="NGY">    84</i>
   <i type="int" name="NGZ">   250</i>
   <i type="int" name="NGXF">   168</i>
   <i type="int" name="NGYF">   168</i>
   <i type="int" name="NGZF">   500</i>
   <i type="logical" name="ADDGRID"> T  </i>
  </separator>
  <separator name="ionic" >
   <i type="int" name="NSW">   100</i>
   <i type="int" name="IBRION">     2</i>
   <i type="int" name="MDALGO">     0</i>
   <i type="int" name="ISIF">     2</i>
   <i name="PSTRESS">      0.00000000</i>
   <i name="EDIFFG">     -0.01000000</i>
   <i type="int" name="NFREE">     1</i>
   <i name="POTIM">      0.50000000</i>
   <i name="SMASS">     -3.00000000</i>
   <i name="SCALEE">      1.00000000</i>
  </separator>
  <separator name="ionic md" >
   <i name="TEBEG">      0.00010000</i>
   <i name="TEEND">      0.00010000</i>
   <i type="int" name="NBLOCK">     1</i>
   <i type="int" name="KBLOCK">   100</i>
   <i type="int" name="NPACO">   256</i>
   <i name="APACO">     10.00000000</i>
  </separator>
  <separator name="symmetry" >
   <i type="int" name="ISYM">     2</i>
   <i name="SYMPREC">      0.00001000</i>
  </separator>
  <separator name="dos" >
   <i type="int" name="LORBIT">    11</i>
   <v name="RWIGS">     -1.00000000</v>
   <i type="int" name="NEDOS">   301</i>
   <i name="EMIN">     10.00000000</i>
   <i name="EMAX">    -10.00000000</i>
   <i name="EFERMI">      0.00000000</i>
  </separator>
  <separator name="writing" >
   <i type="int" name="NWRITE">     2</i>
   <i type="logical" name="LWAVE"> T  </i>
   <i type="logical" name="LDOWNSAMPLE"> F  </i>
   <i type="logical" name="LCHARG"> T  </i>
   <i type="logical" name="LPARD"> F  </i>
   <i type="logical" name="LVTOT"> F  </i>
   <i type="logical" name="LVHAR"> F  </i>
   <i type="logical" name="LELF"> F  </i>
   <i type="logical" name="LOPTICS"> F  </i>
   <v name="STM">      0.00000000      0.00000000      0.00000000      0.00000000      0.00000000      0.00000000      0.00000000</v>
  </separator>
  <separator name="performance" >
   <i type="int" name="NPAR">     4</i>
   <i type="int" name="NSIM">     4</i>
   <i type="int" name="NBLK">    -1</i>
   <i type="logical" name="LPLANE"> T  </i>
   <i type="logical" name="LSCALAPACK"> F  </i>
   <i type="logical" name="LSCAAWARE"> F  </i>
   <i type="logical" name="LSCALU"> F  </i>
   <i type="logical" name="LASYNC"> F  </i>
   <i type="logical" name="LORBITALREAL"> F  </i>
  </separator>
  <separator name="miscellaneous" >
   <i type="int" name="IDIOT">     3</i>
   <i type="int" name="PHON_NSTRUCT">    -1</i>
   <i type="logical" name="LMUSIC"> F  </i>
   <v name="POMASS">      1.00000000</v>
   <v name="DARWINR">      0.00000000</v>
   <v name="DARWINV">      1.00000000</v>
   <i type="logical" name="LCORR"> T  </i>
  </separator>
  <i type="logical" name="GGA_COMPAT"> T  </i>
  <i type="logical" name="LBERRY"> F  </i>
  <i type="int" name="ICORELEVEL">     0</i>
  <i type="logical" name="LDAU"> F  </i>
  <i type="int" name="I_CONSTRAINED_M">     0</i>
  <separator name="electronic exchange-correlation" >
   <i type="string" name="GGA">--</i>
   <i type="int" name="VOSKOWN">     0</i>
   <i type="logical" name="LHFCALC"> F  </i>
   <i type="string" name="PRECFOCK"></i>
   <i type="logical" name="LSYMGRAD"> F  </i>
   <i type="logical" name="LHFONE"> F  </i>
   <i type="logical" name="LRHFCALC"> F  </i>
   <i type="logical" name="LTHOMAS"> F  </i>
   <i type="logical" name="LMODELHF"> F  </i>
   <i type="logical" name="LFOCKACE"> F  </i>
   <i name="ENCUT4O">     -1.00000000</i>
   <i type="int" name="EXXOEP">     0</i>
   <i type="int" name="FOURORBIT">     0</i>
   <i name="AEXX">      0.00000000</i>
   <i name="HFALPHA">      0.00000000</i>
   <i name="MCALPHA">      0.00000000</i>
   <i name="ALDAX">      1.00000000</i>
   <i name="AGGAX">      1.00000000</i>
   <i name="ALDAC">      1.00000000</i>
   <i name="AGGAC">      1.00000000</i>
   <i type="int" name="NKREDX">     1</i>
   <i type="int" name="NKREDY">     1</i>
   <i type="int" name="NKREDZ">     1</i>
   <i type="logical" name="SHIFTRED"> F  </i>
   <i type="logical" name="ODDONLY"> F  </i>
   <i type="logical" name="EVENONLY"> F  </i>
   <i type="int" name="LMAXFOCK">     0</i>
   <i type="int" name="NMAXFOCKAE">     0</i>
   <i type="logical" name="LFOCKAEDFT"> F  </i>
   <i name="HFSCREEN">      0.00000000</i>
   <i name="HFSCREENC">      0.00000000</i>
   <i type="int" name="NBANDSGWLOW">     0</i>
  </separator>
  <separator name="vdW DFT" >
   <i type="logical" name="LUSE_VDW"> F  </i>
   <i name="Zab_VDW">     -0.84910000</i>
   <i name="PARAM1">      0.12340000</i>
   <i name="PARAM2">      1.00000000</i>
   <i name="PARAM3">      0.00000000</i>
  </separator>
  <separator name="model GW" >
   <i type="int" name="MODEL_GW">     0</i>
   <i name="MODEL_EPS0">   1210.11657541</i>
   <i name="MODEL_ALPHA">      1.00000000</i>
  </separator>
  <separator name="linear response parameters" >
   <i type="logical" name="LEPSILON"> F  </i>
   <i type="logical" name="LRPA"> F  </i>
   <i type="logical" name="LNABLA"> F  </i>
   <i type="logical" name="LVEL"> F  </i>
   <i name="CSHIFT">      0.10000000</i>
   <i name="OMEGAMAX">     -1.00000000</i>
   <i name="DEG_THRESHOLD">      0.00200000</i>
   <i name="RTIME">     -0.10000000</i>
   <i name="WPLASMAI">      0.00000000</i>
   <v name="DFIELD">      0.00000000      0.00000000      0.00000000</v>
   <v name="WPLASMA">      0.00000000      0.00000000      0.00000000      0.00000000      0.00000000      0.00000000      0.00000000      0.00000000      0.00000000</v>
  </separator>
  <separator name="orbital magnetization" >
   <i type="logical" name="NUCIND"> F  </i>
   <v name="MAGPOS">      0.00000000      0.00000000      0.00000000</v>
   <i type="logical" name="LNICSALL"> T  </i>
   <i type="logical" name="ORBITALMAG"> F  </i>
   <i type="logical" name="LMAGBLOCH"> F  </i>
   <i type="logical" name="LCHIMAG"> F  </i>
   <i type="logical" name="LGAUGE"> T  </i>
   <i type="int" name="MAGATOM">     0</i>
   <v name="MAGDIPOL">      0.00000000      0.00000000      0.00000000</v>
   <v name="AVECCONST">      0.00000000      0.00000000      0.00000000</v>
  </separator>
  <separator name="response functions" >
   <i type="logical" name="LFINITE_TEMPERATURE"> F  </i>
   <i type="logical" name="LADDER"> F  </i>
   <i type="logical" name="LRPAFORCE"> F  </i>
   <i type="logical" name="LFXC"> F  </i>
   <i type="logical" name="LHARTREE"> T  </i>
   <i type="int" name="IBSE">     0</i>
   <v type="int" name="KPOINT">    -1     0     0     0</v>
   <i type="logical" name="LTCTC"> F  </i>
   <i type="logical" name="LTCTE"> F  </i>
   <i type="logical" name="LTETE"> F  </i>
   <i type="logical" name="LTRIPLET"> F  </i>
   <i type="logical" name="LFXCEPS"> F  </i>
   <i type="logical" name="LFXHEG"> F  </i>
   <i type="int" name="NATURALO">     2</i>
   <i type="logical" name="LHOLEGF"> F  </i>
   <i type="logical" name="L2ORDER"> F  </i>
   <i type="logical" name="LDMP1"> F  </i>
   <i type="logical" name="LMP2LT"> F  </i>
   <i type="logical" name="LSMP2LT"> F  </i>
   <i type="logical" name="LGWLF"> F  </i>
   <i name="ENCUTGW">     -2.00000000</i>
   <i name="ENCUTGWSOFT">     -2.00000000</i>
   <i name="ENCUTLF">     -1.00000000</i>
   <i type="logical" name="LESF_SPLINES"> F  </i>
   <i type="int" name="LMAXMP2">    -1</i>
   <i name="SCISSOR">      0.00000000</i>
   <i type="int" name="NOMEGA">     0</i>
   <i type="int" name="NOMEGAR">     0</i>
   <i type="int" name="NBANDSGW">    -1</i>
   <i type="int" name="NBANDSO">    -1</i>
   <i type="int" name="NBANDSV">    -1</i>
   <i type="int" name="NELMGW">     1</i>
   <i type="int" name="NELMHF">     1</i>
   <i type="int" name="DIM">     3</i>
   <i type="int" name="IESPILON">     4</i>
   <i type="int" name="ANTIRES">     0</i>
   <i name="OMEGAMAX">    -30.00000000</i>
   <i name="OMEGAMIN">    -30.00000000</i>
   <i name="OMEGATL">   -200.00000000</i>
   <i type="int" name="OMEGAGRID">     0</i>
   <i name="CSHIFT">     -0.10000000</i>
   <i type="logical" name="LSELFENERGY"> F  </i>
   <i type="logical" name="LSPECTRAL"> F  </i>
   <i type="logical" name="LSPECTRALGW"> F  </i>
   <i type="logical" name="LSINGLES"> F  </i>
   <i type="logical" name="LFERMIGW"> F  </i>
   <i type="logical" name="ODDONLYGW"> F  </i>
   <i type="logical" name="EVENONLYGW"> F  </i>
   <i type="int" name="NKREDLFX">     1</i>
   <i type="int" name="NKREDLFY">     1</i>
   <i type="int" name="NKREDLFZ">     1</i>
   <i type="int" name="MAXMEM">  2800</i>
   <i type="int" name="TELESCOPE">     0</i>
   <i type="int" name="NTAUPAR">    -1</i>
   <i type="int" name="NOMEGAPAR">    -1</i>
   <i name="DAMP_NEWTON">      0.80000001</i>
   <i name="LAMBDA">      1.00000000</i>
  </separator>
  <separator name="External order field" >
   <i name="OFIELD_KAPPA">      0.00000000</i>
   <v name="OFIELD_K">      0.00000000      0.00000000      0.00000000</v>
   <i name="OFIELD_Q6_NEAR">      0.00000000</i>
   <i name="OFIELD_Q6_FAR">      0.00000000</i>
   <i name="OFIELD_A">      0.00000000</i>
  </separator>
  <separator name="optional k-points parameters" >
   <i type="int" name="KPOINTS_OPT_MODE">     1</i>
   <i type="logical" name="LKPOINTS_OPT"> F  </i>
  </separator>
 </parameters>
 <atominfo>
  <atoms>       2 </atoms>
  <types>       1 </types>
  <array name="atoms" >
   <dimension dim="1">ion</dimension>
   <field type="string">element</field>
   <field type="int">atomtype</field>
   <set>
    <rc><c>H </c><c>   1</c></rc>
    <rc><c>H </c><c>   1</c></rc>
   </set>
  </array>
  <array name="atomtypes" >
   <dimension dim="1">type</dimension>
   <field type="int">atomspertype</field>
   <field type="string">element</field>
   <field>mass</field>
   <field>valence</field>
   <field type="string">pseudopotential</field>
   <set>
    <rc><c>   2</c><c>H </c><c>      1.00000000</c><c>      1.00000000</c><c>  PAW_PBE H 15Jun2001                   </c></rc>
   </set>
  </array>
 </atominfo>
 <structure name="initialpos" >
  <crystal>
   <varray name="basis" >
    <v>      11.10380000       0.00000000       0.00000000 </v>
    <v>       0.00000000      11.20020000       0.00000000 </v>
    <v>       0.00000000       0.00000000      32.43460000 </v>
   </varray>
   <i name="volume">   4033.72191804 </i>
   <varray name="rec_basis" >
    <v>       0.09005926       0.00000000       0.00000000 </v>
    <v>       0.00000000       0.08928412       0.00000000 </v>
    <v>       0.00000000       0.00000000       0.03083127 </v>
   </varray>
  </crystal>
  <varray name="positions" >
   <v>       0.48908000       0.63249000       0.50492000 </v>
   <v>       0.46959000       0.63219000       0.52673000 </v>
  </varray>
 </structure>
 <calculation>
  <scstep>
   <time name="dav">    0.09    0.08</time>
   <time name="total">    2.05    1.78</time>
   <energy>
    <i name="alphaZ">      0.00241580 </i>
    <i name="ewald">     17.24738773 </i>
    <i name="hartreedc">    -26.52773826 </i>
    <i name="XCdc">      5.15388534 </i>
    <i name="pawpsdc">      3.58865974 </i>
    <i name="pawaedc">     -3.60540285 </i>
    <i name="eentropy">     -0.01141295 </i>
    <i name="bandstr">    -12.76558998 </i>
    <i name="atom">     24.97394176 </i>
    <i name="e_fr_energy">      8.05614634 </i>
    <i name="e_wo_entrp">      8.06755929 </i>
    <i name="e_0_energy">      8.06185282 </i>
   </energy>
  </scstep>
  <scstep>
   <time name="dav">    0.05    0.05</time>
   <time name="total">    0.05    0.05</time>
   <energy>
    <i name="e_fr_energy">      4.27597528 </i>
    <i name="e_wo_entrp">      4.29542134 </i>
    <i name="e_0_energy">      4.28569831 </i>
   </energy>
  </scstep>
  <scstep>
   <time name="dav">    0.06    0.06</time>
   <time name="total">    0.06    0.06</time>
   <energy>
    <i name="e_fr_energy">      3.52504378 </i>
    <i name="e_wo_entrp">      3.52511514 </i>
    <i name="e_0_energy">      3.52507946 </i>
   </energy>
  </scstep>
  <scstep>
   <time name="dav">    0.05    0.05</time>
   <time name="total">    0.05    0.05</time>
   <energy>
    <i name="e_fr_energy">      3.51157634 </i>
    <i name="e_wo_entrp">      3.51163957 </i>
    <i name="e_0_energy">      3.51160795 </i>
   </energy>
  </scstep>
  <scstep>
   <time name="dav">    0.05    0.05</time>
   <time name="total">    2.22    1.76</time>
   <energy>
    <i name="e_fr_energy">      3.51120815 </i>
    <i name="e_wo_entrp">      3.51127116 </i>
    <i name="e_0_energy">      3.51123965 </i>
   </energy>
  </scstep>
  <scstep>
   <time name="diag">    0.02    0.01</time>
   <time name="diis">    0.03    0.03</time>
   <time name="orth">    0.00    0.00</time>
   <time name="total">    3.97    3.36</time>
   <energy>
    <i name="e_fr_energy">      6.86797923 </i>
    <i name="e_wo_entrp">      6.86798093 </i>
    <i name="e_0_energy">      6.86798008 </i>
   </energy>
  </scstep>
  <scstep>
   <time name="diag">    0.04    0.01</time>
   <time name="diis">    0.02    0.02</time>
   <time name="orth">    0.00    0.00</time>
   <time name="total">    3.93    3.32</time>
   <energy>
    <i name="e_fr_energy">      4.82559164 </i>
    <i name="e_wo_entrp">      4.82559326 </i>
    <i name="e_0_energy">      4.82559245 </i>
   </energy>
  </scstep>
  <scstep>
   <time name="diag">    0.03    0.01</time>
   <time name="diis">    0.02    0.02</time>
   <time name="orth">    0.00    0.00</time>
   <time name="total">    4.03    3.36</time>
   <energy>
    <i name="e_fr_energy">      3.99459185 </i>
    <i name="e_wo_entrp">      3.99459222 </i>
    <i name="e_0_energy">      3.99459204 </i>
   </energy>
  </scstep>
  <scstep>
   <time name="diag">    0.04    0.01</time>
   <time name="diis">    0.02    0.02</time>
   <time name="orth">    0.00    0.00</time>
   <time name="total">    3.89    3.32</time>
   <energy>
    <i name="e_fr_energy">      3.93561129 </i>
    <i name="e_wo_entrp">      3.93561171 </i>
    <i name="e_0_energy">      3.93561150 </i>
   </energy>
  </scstep>
  <scstep>
   <time name="diag">    0.02    0.01</time>
   <time name="diis">    0.02    0.02</time>
   <time name="orth">    0.00    0.00</time>
   <time name="total">    3.98    3.35</time>
   <energy>
    <i name="e_fr_energy">      3.60717410 </i>
    <i name="e_wo_entrp">      3.60717459 </i>
    <i name="e_0_energy">      3.60717435 </i>
   </energy>
  </scstep>
  <scstep>
   <time name="diag">    0.02    0.01</time>
   <time name="diis">    0.02    0.02</time>
   <time name="orth">    0.00    0.00</time>
   <time name="total">    3.97    3.32</time>
   <energy>
    <i name="e_fr_energy">      3.43450062 </i>
    <i name="e_wo_entrp">      3.43450120 </i>
    <i name="e_0_energy">      3.43450091 </i>
   </energy>
  </scstep>
  <scstep>
   <time name="diag">    0.03    0.01</time>
   <time name="diis">    0.02    0.02</time>
   <time name="orth">    0.00    0.00</time>
   <time name="total">    3.95    3.33</time>
   <energy>
    <i name="e_fr_energy">      3.41160868 </i>
    <i name="e_wo_entrp">      3.41160933 </i>
    <i name="e_0_energy">      3.41160900 </i>
   </energy>
  </scstep>
  <scstep>
   <time name="diag">    0.03    0.01</time>
   <time name="diis">    0.02    0.02</time>
   <time name="orth">    0.00    0.00</time>
   <time name="total">    4.12    3.39</time>
   <energy>
    <i name="e_fr_energy">      3.40185292 </i>
    <i name="e_wo_entrp">      3.40185355 </i>
    <i name="e_0_energy">      3.40185324 </i>
   </energy>
  </scstep>
  <scstep>
   <time name="diag">    0.04    0.02</time>
   <time name="diis">    0.02    0.02</time>
   <time name="orth">    0.00    0.00</time>
   <time name="total">    3.94    3.37</time>
   <energy>
    <i name="e_fr_energy">      3.39498318 </i>
    <i name="e_wo_entrp">      3.39498372 </i>
    <i name="e_0_energy">      3.39498345 </i>
   </energy>
  </scstep>
  <scstep>
   <time name="diag">    0.03    0.01</time>
   <time name="diis">    0.02    0.02</time>
   <time name="orth">    0.00    0.00</time>
   <time name="total">    4.00    3.37</time>
   <energy>
    <i name="e_fr_energy">      3.39459127 </i>
    <i name="e_wo_entrp">      3.39459177 </i>
    <i name="e_0_energy">      3.39459152 </i>
   </energy>
  </scstep>
  <scstep>
   <time name="diag">    0.04    0.01</time>
   <time name="diis">    0.02    0.02</time>
   <time name="orth">    0.00    0.00</time>
   <time name="total">    3.94    3.34</time>
   <energy>
    <i name="e_fr_energy">      3.39229137 </i>
    <i name="e_wo_entrp">      3.39229183 </i>
    <i name="e_0_energy">      3.39229160 </i>
   </energy>
  </scstep>
  <scstep>
   <time name="diag">    0.04    0.01</time>
   <time name="diis">    0.02    0.02</time>
   <time name="orth">    0.00    0.00</time>
   <time name="total">    3.94    3.36</time>
   <energy>
    <i name="e_fr_energy">      3.39206498 </i>
    <i name="e_wo_entrp">      3.39206541 </i>
    <i name="e_0_energy">      3.39206520 </i>
   </energy>
  </scstep>
  <scstep>
   <time name="diag">    0.03    0.01</time>
   <time name="diis">    0.02    0.02</time>
   <time name="orth">    0.00    0.00</time>
   <time name="total">    4.14    3.38</time>
   <energy>
    <i name="e_fr_energy">      3.39223077 </i>
    <i name="e_wo_entrp">      3.39223120 </i>
    <i name="e_0_energy">      3.39223099 </i>
   </energy>
  </scstep>
  <scstep>
   <time name="diag">    0.04    0.01</time>
   <time name="diis">    0.02    0.02</time>
   <time name="orth">    0.00    0.00</time>
   <time name="total">    3.93    3.37</time>
   <energy>
    <i name="e_fr_energy">      3.38909829 </i>
    <i name="e_wo_entrp">      3.38909871 </i>
    <i name="e_0_energy">      3.38909850 </i>
   </energy>
  </scstep>
  <scstep>
   <time name="diag">    0.03    0.01</time>
   <time name="diis">    0.02    0.02</time>
   <time name="orth">    0.00    0.00</time>
   <time name="total">    3.96    3.38</time>
   <energy>
    <i name="e_fr_energy">      3.38852613 </i>
    <i name="e_wo_entrp">      3.38852655 </i>
    <i name="e_0_energy">      3.38852634 </i>
   </energy>
  </scstep>
  <scstep>
   <time name="diag">    0.04    0.01</time>
   <time name="diis">    0.02    0.02</time>
   <time name="orth">    0.00    0.00</time>
   <time name="total">    3.99    3.36</time>
   <energy>
    <i name="e_fr_energy">      3.38821067 </i>
    <i name="e_wo_entrp">      3.38821111 </i>
    <i name="e_0_energy">      3.38821089 </i>
   </energy>
  </scstep>
  <scstep>
   <time name="diag">    0.04    0.01</time>
   <time name="diis">    0.02    0.02</time>
   <time name="orth">    0.00    0.00</time>
   <time name="total">    4.02    3.38</time>
   <energy>
    <i name="e_fr_energy">      3.38809702 </i>
    <i name="e_wo_entrp">      3.38809746 </i>
    <i name="e_0_energy">      3.38809724 </i>
   </energy>
  </scstep>
  <scstep>
   <time name="diag">    0.02    0.01</time>
   <time name="diis">    0.02    0.02</time>
   <time name="orth">    0.00    0.00</time>
   <time name="total">    3.99    3.37</time>
   <energy>
    <i name="e_fr_energy">      3.38801781 </i>
    <i name="e_wo_entrp">      3.38801825 </i>
    <i name="e_0_energy">      3.38801803 </i>
   </energy>
  </scstep>
  <scstep>
   <time name="diag">    0.04    0.01</time>
   <time name="diis">    0.02    0.02</time>
   <time name="orth">    0.00    0.00</time>
   <time name="total">    4.08    3.36</time>
   <energy>
    <i name="e_fr_energy">      3.38787280 </i>
    <i name="e_wo_entrp">      3.38787324 </i>
    <i name="e_0_energy">      3.38787302 </i>
   </energy>
  </scstep>
  <scstep>
   <time name="diag">    0.03    0.01</time>
   <time name="diis">    0.02    0.02</time>
   <time name="orth">    0.00    0.00</time>
   <time name="total">    3.95    3.35</time>
   <energy>
    <i name="e_fr_energy">      3.38787479 </i>
    <i name="e_wo_entrp">      3.38787523 </i>
    <i name="e_0_energy">      3.38787501 </i>
   </energy>
  </scstep>
  <scstep>
   <time name="diag">    0.03    0.01</time>
   <time name="diis">    0.02    0.02</time>
   <time name="orth">    0.00    0.00</time>
   <time name="total">    3.96    3.38</time>
   <energy>
    <i name="e_fr_energy">      3.38787145 </i>
    <i name="e_wo_entrp">      3.38787190 </i>
    <i name="e_0_energy">      3.38787168 </i>
   </energy>
  </scstep>
  <scstep>
   <time name="diag">    0.04    0.01</time>
   <time name="diis">    0.02    0.02</time>
   <time name="orth">    0.00    0.00</time>
   <time name="total">    3.94    3.35</time>
   <energy>
    <i name="e_fr_energy">      3.38779974 </i>
    <i name="e_wo_entrp">      3.38780019 </i>
    <i name="e_0_energy">      3.38779997 </i>
   </energy>
  </scstep>
  <scstep>
   <time name="diag">    0.04    0.01</time>
   <time name="diis">    0.02    0.02</time>
   <time name="orth">    0.00    0.00</time>
   <time name="total">    3.93    3.37</time>
   <energy>
    <i name="e_fr_energy">      3.38776231 </i>
    <i name="e_wo_entrp">      3.38776275 </i>
    <i name="e_0_energy">      3.38776253 </i>
   </energy>
  </scstep>
  <scstep>
   <time name="diag">    0.03    0.01</time>
   <time name="diis">    0.02    0.02</time>
   <time name="orth">    0.00    0.00</time>
   <time name="total">    3.99    3.40</time>
   <energy>
    <i name="e_fr_energy">      3.38776803 </i>
    <i name="e_wo_entrp">      3.38776848 </i>
    <i name="e_0_energy">      3.38776826 </i>
   </energy>
  </scstep>
  <scstep>
   <time name="diag">    0.04    0.01</time>
   <time name="diis">    0.02    0.02</time>
   <time name="orth">    0.00    0.00</time>
   <time name="total">    3.93    3.40</time>
   <energy>
    <i name="e_fr_energy">      3.38775677 </i>
    <i name="e_wo_entrp">      3.38775722 </i>
    <i name="e_0_energy">      3.38775700 </i>
   </energy>
  </scstep>
  <scstep>
   <time name="diag">    0.03    0.01</time>
   <time name="diis">    0.02    0.02</time>
   <time name="orth">    0.00    0.00</time>
   <time name="total">    4.01    3.41</time>
   <energy>
    <i name="e_fr_energy">      3.38774885 </i>
    <i name="e_wo_entrp">      3.38774929 </i>
    <i name="e_0_energy">      3.38774907 </i>
   </energy>
  </scstep>
  <scstep>
   <time name="diag">    0.03    0.01</time>
   <time name="diis">    0.02    0.02</time>
   <time name="orth">    0.00    0.00</time>
   <time name="total">    4.04    3.41</time>
   <energy>
    <i name="e_fr_energy">      3.38774784 </i>
    <i name="e_wo_entrp">      3.38774828 </i>
    <i name="e_0_energy">      3.38774806 </i>
   </energy>
  </scstep>
  <scstep>
   <time name="diag">    0.02    0.01</time>
   <time name="diis">    0.02    0.02</time>
   <time name="orth">    0.00    0.00</time>
   <time name="total">    1.85    1.63</time>
   <energy>
    <i name="alphaZ">      0.00241580 </i>
    <i name="ewald">     17.24738773 </i>
    <i name="hartreedc">    -23.89953975 </i>
    <i name="XCdc">      4.87838506 </i>
    <i name="pawpsdc">      8.10361392 </i>
    <i name="pawaedc">     -8.13164825 </i>
    <i name="eentropy">     -0.00000045 </i>
    <i name="bandstr">    -19.78680801 </i>
    <i name="atom">     24.97394176 </i>
    <i name="e_fr_energy">      3.38774781 </i>
    <i name="e_wo_entrp">      3.38774826 </i>
    <i name="e_0_energy">      3.38774804 </i>
   </energy>
  </scstep>
  <structure>
   <crystal>
    <varray name="basis" >
     <v>      11.10380000       0.00000000       0.00000000 </v>
     <v>       0.00000000      11.20020000       0.00000000 </v>
     <v>       0.00000000       0.00000000      32.43460000 </v>
    </varray>
    <i name="volume">   4033.72191804 </i>
    <varray name="rec_basis" >
     <v>       0.09005926       0.00000000       0.00000000 </v>
     <v>       0.00000000       0.08928412       0.00000000 </v>
     <v>       0.00000000       0.00000000       0.03083127 </v>
    </varray>
   </crystal>
   <varray name="positions" >
    <v>       0.48908000       0.63249000       0.50492000 </v>
    <v>       0.46959000       0.63219000       0.52673000 </v>
   </varray>
  </structure>
  <varray name="forces" >
   <v>       4.00386643       0.06217228     -13.09045392 </v>
   <v>      -4.00386643      -0.06217228      13.09045392 </v>
  </varray>
  <varray name="stress" >
   <v>       0.33399777       0.00533527      -1.12368952 </v>
   <v>       0.00533527      -0.01049683      -0.01744917 </v>
   <v>      -1.12368952      -0.01744917       3.66414174 </v>
  </varray>
  <energy>
   <i name="e_fr_energy">      3.38774781 </i>
   <i name="e_wo_entrp">      3.38774826 </i>
   <i name="e_0_energy">      3.38774804 </i>
  </energy>
  <time name="totalsc">  170.17  147.06</time>
 </calculation>
 <calculation>
  <scstep>
   <time name="dav">    0.08    0.06</time>
   <time name="total">    3.90    3.33</time>
   <energy>
    <i name="alphaZ">      0.00241580 </i>
    <i name="ewald">      4.69685447 </i>
    <i name="hartreedc">    -19.51865524 </i>
    <i name="XCdc">     14.34714280 </i>
    <i name="pawpsdc">      8.10362208 </i>
    <i name="pawaedc">     -8.13165687 </i>
    <i name="eentropy">     -0.00000000 </i>
    <i name="bandstr">    -14.61691240 </i>
    <i name="atom">     24.97394176 </i>
    <i name="e_fr_energy">      9.85675240 </i>
    <i name="e_wo_entrp">      9.85675240 </i>
    <i name="e_0_energy">      9.85675240 </i>
   </energy>
  </scstep>
  <scstep>
   <time name="diag">    0.03    0.01</time>
   <time name="diis">    0.02    0.02</time>
   <time name="orth">    0.00    0.00</time>
   <time name="total">    3.92    3.33</time>
   <energy>
    <i name="e_fr_energy">      6.57382938 </i>
    <i name="e_wo_entrp">      6.57382938 </i>
    <i name="e_0_energy">      6.57382938 </i>
   </energy>
  </scstep>
  <scstep>
   <time name="diag">    0.03    0.01</time>
   <time name="diis">    0.02    0.02</time>
   <time name="orth">    0.00    0.00</time>
   <time name="total">    3.92    3.32</time>
   <energy>
    <i name="e_fr_energy">     -1.02864068 </i>
    <i name="e_wo_entrp">     -1.02864068 </i>
    <i name="e_0_energy">     -1.02864068 </i>
   </energy>
  </scstep>
  <scstep>
   <time name="diag">    0.03    0.01</time>
   <time name="diis">    0.02    0.02</time>
   <time name="orth">    0.00    0.00</time>
   <time name="total">    4.01    3.37</time>
   <energy>
    <i name="e_fr_energy">     -0.44104624 </i>
    <i name="e_wo_entrp">     -0.44104624 </i>
    <i name="e_0_energy">     -0.44104624 </i>
   </energy>
  </scstep>
  <scstep>
   <time name="diag">    0.02    0.01</time>
   <time name="diis">    0.02    0.02</time>
   <time name="orth">    0.00    0.00</time>
   <time name="total">    3.87    3.33</time>
   <energy>
    <i name="e_fr_energy">     -0.64326381 </i>
    <i name="e_wo_entrp">     -0.64326381 </i>
    <i name="e_0_energy">     -0.64326381 </i>
   </energy>
  </scstep>
  <scstep>
   <time name="diag">    0.04    0.01</time>
   <time name="diis">    0.02    0.02</time>
   <time name="orth">    0.00    0.00</time>
   <time name="total">    4.23    3.35</time>
   <energy>
    <i name="e_fr_energy">     -1.47271617 </i>
    <i name="e_wo_entrp">     -1.47271617 </i>
    <i name="e_0_energy">     -1.47271617 </i>
   </energy>
  </scstep>
  <scstep>
   <time name="diag">    0.02    0.01</time>
   <time name="diis">    0.02    0.02</time>
   <time name="orth">    0.00    0.00</time>
   <time name="total">    4.01    3.34</time>
   <energy>
    <i name="e_fr_energy">     -1.74978578 </i>
    <i name="e_wo_entrp">     -1.74978578 </i>
    <i name="e_0_energy">     -1.74978578 </i>
   </energy>
  </scstep>
  <scstep>
   <time name="diag">    0.02    0.01</time>
   <time name="diis">    0.02    0.02</time>
   <time name="orth">    0.00    0.00</time>
   <time name="total">    4.03    3.34</time>
   <energy>
    <i name="e_fr_energy">     -1.82368477 </i>
    <i name="e_wo_entrp">     -1.82368477 </i>
    <i name="e_0_energy">     -1.82368477 </i>
   </energy>
  </scstep>
  <scstep>
   <time name="diag">    0.02    0.01</time>
   <time name="diis">    0.02    0.02</time>
   <time name="orth">    0.00    0.00</time>
   <time name="total">    4.06    3.35</time>
   <energy>
    <i name="e_fr_energy">     -1.94331535 </i>
    <i name="e_wo_entrp">     -1.94331535 </i>
    <i name="e_0_energy">     -1.94331535 </i>
   </energy>
  </scstep>
  <scstep>
   <time name="diag">    0.02    0.01</time>
   <time name="diis">    0.02    0.02</time>
   <time name="orth">    0.00    0.00</time>
   <time name="total">    4.01    3.37</time>
   <energy>
    <i name="e_fr_energy">     -1.95053625 </i>
    <i name="e_wo_entrp">     -1.95053625 </i>
    <i name="e_0_energy">     -1.95053625 </i>
   </energy>
  </scstep>
  <scstep>
   <time name="diag">    0.03    0.01</time>
   <time name="diis">    0.02    0.02</time>
   <time name="orth">    0.00    0.00</time>
   <time name="total">    3.97    3.35</time>
   <energy>
    <i name="e_fr_energy">     -1.98290798 </i>
    <i name="e_wo_entrp">     -1.98290798 </i>
    <i name="e_0_energy">     -1.98290798 </i>
   </energy>
  </scstep>
  <scstep>
   <time name="diag">    0.03    0.01</time>
   <time name="diis">    0.02    0.02</time>
   <time name="orth">    0.00    0.00</time>
   <time name="total">    4.10    3.40</time>
   <energy>
    <i name="e_fr_energy">     -1.98940751 </i>
    <i name="e_wo_entrp">     -1.98940751 </i>
    <i name="e_0_energy">     -1.98940751 </i>
   </energy>
  </scstep>
  <scstep>
   <time name="diag">    0.02    0.01</time>
   <time name="diis">    0.02    0.02</time>
   <time name="orth">    0.00    0.00</time>
   <time name="total">    4.09    3.38</time>
   <energy>
    <i name="e_fr_energy">     -1.99978110 </i>
    <i name="e_wo_entrp">     -1.99978110 </i>
    <i name="e_0_energy">     -1.99978110 </i>
   </energy>
  </scstep>
  <scstep>
   <time name="diag">    0.03    0.01</time>
   <time name="diis">    0.02    0.02</time>
   <time name="orth">    0.00    0.00</time>
   <time name="total">    4.05    3.37</time>
   <energy>
    <i name="e_fr_energy">     -2.00233191 </i>
    <i name="e_wo_entrp">     -2.00233191 </i>
    <i name="e_0_energy">     -2.00233191 </i>
   </energy>
  </scstep>
  <scstep>
   <time name="diag">    0.03    0.01</time>
   <time name="diis">    0.02    0.02</time>
   <time name="orth">    0.00    0.00</time>
   <time name="total">    3.93    3.37</time>
   <energy>
    <i name="e_fr_energy">     -2.00451030 </i>
    <i name="e_wo_entrp">     -2.00451030 </i>
    <i name="e_0_energy">     -2.00451030 </i>
   </energy>
  </scstep>
  <scstep>
   <time name="diag">    0.04    0.01</time>
   <time name="diis">    0.02    0.02</time>
   <time name="orth">    0.00    0.00</time>
   <time name="total">    3.96    3.37</time>
   <energy>
    <i name="e_fr_energy">     -2.00469604 </i>
    <i name="e_wo_entrp">     -2.00469604 </i>
    <i name="e_0_energy">     -2.00469604 </i>
   </energy>
  </scstep>
  <scstep>
   <time name="diag">    0.02    0.01</time>
   <time name="diis">    0.02    0.02</time>
   <time name="orth">    0.00    0.00</time>
   <time name="total">    4.00    3.40</time>
   <energy>
    <i name="e_fr_energy">     -2.00504322 </i>
    <i name="e_wo_entrp">     -2.00504322 </i>
    <i name="e_0_energy">     -2.00504322 </i>
   </energy>
  </scstep>
  <scstep>
   <time name="diag">    0.04    0.01</time>
   <time name="diis">    0.02    0.02</time>
   <time name="orth">    0.00    0.00</time>
   <time name="total">    4.08    3.39</time>
   <energy>
    <i name="e_fr_energy">     -2.00561204 </i>
    <i name="e_wo_entrp">     -2.00561204 </i>
    <i name="e_0_energy">     -2.00561204 </i>
   </energy>
  </scstep>
  <scstep>
   <time name="diag">    0.02    0.01</time>
   <time name="diis">    0.02    0.02</time>
   <time name="orth">    0.00    0.00</time>
   <time name="total">    4.15    3.36</time>
   <energy>
    <i name="e_fr_energy">     -2.00591653 </i>
    <i name="e_wo_entrp">     -2.00591653 </i>
    <i name="e_0_energy">     -2.00591653 </i>
   </energy>
  </scstep>
  <scstep>
   <time name="diag">    0.03    0.01</time>
   <time name="diis">    0.02    0.02</time>
   <time name="orth">    0.00    0.00</time>
   <time name="total">    4.12    3.38</time>
   <energy>
    <i name="e_fr_energy">     -2.00588901 </i>
    <i name="e_wo_entrp">     -2.00588901 </i>
    <i name="e_0_energy">     -2.00588901 </i>
   </energy>
  </scstep>
  <scstep>
   <time name="diag">    0.02    0.01</time>
   <time name="diis">    0.02    0.02</time>
   <time name="orth">    0.00    0.00</time>
   <time name="total">    4.16    3.42</time>
   <energy>
    <i name="e_fr_energy">     -2.00599721 </i>
    <i name="e_wo_entrp">     -2.00599721 </i>
    <i name="e_0_energy">     -2.00599721 </i>
   </energy>
  </scstep>
  <scstep>
   <time name="diag">    0.02    0.01</time>
   <time name="diis">    0.02    0.02</time>
   <time name="orth">    0.00    0.00</time>
   <time name="total">    1.88    1.65</time>
   <energy>
    <i name="alphaZ">      0.00241580 </i>
    <i name="ewald">      4.69685447 </i>
    <i name="hartreedc">    -21.36924245 </i>
    <i name="XCdc">      4.79087854 </i>
    <i name="pawpsdc">      4.50378035 </i>
    <i name="pawaedc">     -4.52491003 </i>
    <i name="eentropy">     -0.00000000 </i>
    <i name="bandstr">    -15.07971616 </i>
    <i name="atom">     24.97394176 </i>
    <i name="e_fr_energy">     -2.00599771 </i>
    <i name="e_wo_entrp">     -2.00599771 </i>
    <i name="e_0_energy">     -2.00599771 </i>
   </energy>
  </scstep>
  <structure>
   <crystal>
    <varray name="basis" >
     <v>      11.10380000       0.00000000       0.00000000 </v>
     <v>       0.00000000      11.20020000       0.00000000 </v>
     <v>       0.00000000       0.00000000      32.43460000 </v>
    </varray>
    <i name="volume">   4033.72191804 </i>
    <varray name="rec_basis" >
     <v>       0.09005926       0.00000000       0.00000000 </v>
     <v>       0.00000000       0.08928412       0.00000000 </v>
     <v>       0.00000000       0.00000000       0.03083127 </v>
    </varray>
   </crystal>
   <varray name="positions" >
    <v>       0.50647559       0.63275779       0.48544949 </v>
    <v>       0.45219441       0.63192221       0.54620051 </v>
   </varray>
  </structure>
  <varray name="forces" >
   <v>       0.17676350       0.00274306      -0.57784699 </v>
   <v>      -0.17676350      -0.00274306       0.57784699 </v>
  </varray>
  <varray name="stress" >
   <v>       0.03436206       0.00065674      -0.13833555 </v>
   <v>       0.00065674      -0.00800345      -0.00214823 </v>
   <v>      -0.13833555      -0.00214823       0.44424249 </v>
  </varray>
  <energy>
   <i name="e_fr_energy">     -2.00599771 </i>
   <i name="e_wo_entrp">     -2.00599771 </i>
   <i name="e_0_energy">     -2.00599771 </i>
  </energy>
  <time name="totalsc">  132.13  112.48</time>
 </calculation>
 <calculation>
  <scstep>
   <time name="dav">    0.08    0.05</time>
   <time name="total">    3.97    3.34</time>
   <energy>
    <i name="alphaZ">      0.00241580 </i>
    <i name="ewald">      4.49096061 </i>
    <i name="hartreedc">    -21.19638838 </i>
    <i name="XCdc">      5.69122677 </i>
    <i name="pawpsdc">      4.50448995 </i>
    <i name="pawaedc">     -4.52565596 </i>
    <i name="eentropy">     -0.00000000 </i>
    <i name="bandstr">    -15.00417804 </i>
    <i name="atom">     24.97394176 </i>
    <i name="e_fr_energy">     -1.06318748 </i>
    <i name="e_wo_entrp">     -1.06318748 </i>
    <i name="e_0_energy">     -1.06318748 </i>
   </energy>
  </scstep>
  <scstep>
   <time name="diag">    0.04    0.01</time>
   <time name="diis">    0.02    0.02</time>
   <time name="orth">    0.00    0.00</time>
   <time name="total">    3.95    3.32</time>
   <energy>
    <i name="e_fr_energy">     -1.59442246 </i>
    <i name="e_wo_entrp">     -1.59442246 </i>
    <i name="e_0_energy">     -1.59442246 </i>
   </energy>
  </scstep>
  <scstep>
   <time name="diag">    0.03    0.01</time>
   <time name="diis">    0.02    0.02</time>
   <time name="orth">    0.00    0.00</time>
   <time name="total">    3.90    3.32</time>
   <energy>
    <i name="e_fr_energy">     -1.99505349 </i>
    <i name="e_wo_entrp">     -1.99505349 </i>
    <i name="e_0_energy">     -1.99505349 </i>
   </energy>
  </scstep>
  <scstep>
   <time name="diag">    0.04    0.01</time>
   <time name="diis">    0.02    0.02</time>
   <time name="orth">    0.00    0.00</time>
   <time name="total">    3.97    3.34</time>
   <energy>
    <i name="e_fr_energy">     -1.99999507 </i>
    <i name="e_wo_entrp">     -1.99999507 </i>
    <i name="e_0_energy">     -1.99999507 </i>
   </energy>
  </scstep>
  <scstep>
   <time name="diag">    0.04    0.01</time>
   <time name="diis">    0.02    0.02</time>
   <time name="orth">    0.00    0.00</time>
   <time name="total">    3.93    3.34</time>
   <energy>
    <i name="e_fr_energy">     -2.01562987 </i>
    <i name="e_wo_entrp">     -2.01562987 </i>
    <i name="e_0_energy">     -2.01562987 </i>
   </energy>
  </scstep>
  <scstep>
   <time name="diag">    0.03    0.01</time>
   <time name="diis">    0.02    0.02</time>
   <time name="orth">    0.00    0.00</time>
   <time name="total">    3.96    3.35</time>
   <energy>
    <i name="e_fr_energy">     -2.03498978 </i>
    <i name="e_wo_entrp">     -2.03498978 </i>
    <i name="e_0_energy">     -2.03498978 </i>
   </energy>
  </scstep>
  <scstep>
   <time name="diag">    0.02    0.01</time>
   <time name="diis">    0.02    0.02</time>
   <time name="orth">    0.00    0.00</time>
   <time name="total">    4.19    3.47</time>
   <energy>
    <i name="e_fr_energy">     -2.03683579 </i>
    <i name="e_wo_entrp">     -2.03683579 </i>
    <i name="e_0_energy">     -2.03683579 </i>
   </energy>
  </scstep>
  <scstep>
   <time name="diag">    0.03    0.01</time>
   <time name="diis">    0.02    0.02</time>
   <time name="orth">    0.00    0.00</time>
   <time name="total">    4.05    3.35</time>
   <energy>
    <i name="e_fr_energy">     -2.03861456 </i>
    <i name="e_wo_entrp">     -2.03861456 </i>
    <i name="e_0_energy">     -2.03861456 </i>
   </energy>
  </scstep>
  <scstep>
   <time name="diag">    0.02    0.01</time>
   <time name="diis">    0.02    0.02</time>
   <time name="orth">    0.00    0.00</time>
   <time name="total">    4.10    3.35</time>
   <energy>
    <i name="e_fr_energy">     -2.03950247 </i>
    <i name="e_wo_entrp">     -2.03950247 </i>
    <i name="e_0_energy">     -2.03950247 </i>
   </energy>
  </scstep>
  <scstep>
   <time name="diag">    0.02    0.01</time>
   <time name="diis">    0.02    0.02</time>
   <time name="orth">    0.00    0.00</time>
   <time name="total">    4.10    3.41</time>
   <energy>
    <i name="e_fr_energy">     -2.03985824 </i>
    <i name="e_wo_entrp">     -2.03985824 </i>
    <i name="e_0_energy">     -2.03985824 </i>
   </energy>
  </scstep>
  <scstep>
   <time name="diag">    0.04    0.01</time>
   <time name="diis">    0.02    0.02</time>
   <time name="orth">    0.00    0.00</time>
   <time name="total">    3.93    3.33</time>
   <energy>
    <i name="e_fr_energy">     -2.04012094 </i>
    <i name="e_wo_entrp">     -2.04012094 </i>
    <i name="e_0_energy">     -2.04012094 </i>
   </energy>
  </scstep>
  <scstep>
   <time name="diag">    0.03    0.01</time>
   <time name="diis">    0.02    0.02</time>
   <time name="orth">    0.00    0.00</time>
   <time name="total">    3.98    3.34</time>
   <energy>
    <i name="e_fr_energy">     -2.04013215 </i>
    <i name="e_wo_entrp">     -2.04013215 </i>
    <i name="e_0_energy">     -2.04013215 </i>
   </energy>
  </scstep>
  <scstep>
   <time name="diag">    0.02    0.01</time>
   <time name="diis">    0.02    0.02</time>
   <time name="orth">    0.00    0.00</time>
   <time name="total">    4.06    3.35</time>
   <energy>
    <i name="e_fr_energy">     -2.04014785 </i>
    <i name="e_wo_entrp">     -2.04014785 </i>
    <i name="e_0_energy">     -2.04014785 </i>
   </energy>
  </scstep>
  <scstep>
   <time name="diag">    0.04    0.01</time>
   <time name="diis">    0.02    0.02</time>
   <time name="orth">    0.00    0.00</time>
   <time name="total">    4.00    3.37</time>
   <energy>
    <i name="e_fr_energy">     -2.04022270 </i>
    <i name="e_wo_entrp">     -2.04022270 </i>
    <i name="e_0_energy">     -2.04022270 </i>
   </energy>
  </scstep>
  <scstep>
   <time name="diag">    0.02    0.01</time>
   <time name="diis">    0.02    0.02</time>
   <time name="orth">    0.00    0.00</time>
   <time name="total">    4.08    3.37</time>
   <energy>
    <i name="e_fr_energy">     -2.04022573 </i>
    <i name="e_wo_entrp">     -2.04022573 </i>
    <i name="e_0_energy">     -2.04022573 </i>
   </energy>
  </scstep>
  <scstep>
   <time name="diag">    0.03    0.01</time>
   <time name="diis">    0.02    0.02</time>
   <time name="orth">    0.00    0.00</time>
   <time name="total">    4.04    3.38</time>
   <energy>
    <i name="e_fr_energy">     -2.04024933 </i>
    <i name="e_wo_entrp">     -2.04024933 </i>
    <i name="e_0_energy">     -2.04024933 </i>
   </energy>
  </scstep>
  <scstep>
   <time name="diag">    0.03    0.01</time>
   <time name="diis">    0.02    0.02</time>
   <time name="orth">    0.00    0.00</time>
   <time name="total">    4.16    3.41</time>
   <energy>
    <i name="e_fr_energy">     -2.04026146 </i>
    <i name="e_wo_entrp">     -2.04026146 </i>
    <i name="e_0_energy">     -2.04026146 </i>
   </energy>
  </scstep>
  <scstep>
   <time name="diag">    0.03    0.01</time>
   <time name="diis">    0.02    0.02</time>
   <time name="orth">    0.00    0.00</time>
   <time name="total">    2.09    1.66</time>
   <energy>
    <i name="alphaZ">      0.00241580 </i>
    <i name="ewald">      4.49096061 </i>
    <i name="hartreedc">    -21.18248968 </i>
    <i name="XCdc">      4.77877348 </i>
    <i name="pawpsdc">      4.47992814 </i>
    <i name="pawaedc">     -4.50100125 </i>
    <i name="eentropy">     -0.00000000 </i>
    <i name="bandstr">    -15.08279042 </i>
    <i name="atom">     24.97394176 </i>
    <i name="e_fr_energy">     -2.04026156 </i>
    <i name="e_wo_entrp">     -2.04026156 </i>
    <i name="e_0_energy">     -2.04026156 </i>
   </energy>
  </scstep>
  <structure>
   <crystal>
    <varray name="basis" >
     <v>      11.10380000       0.00000000       0.00000000 </v>
     <v>       0.00000000      11.20020000       0.00000000 </v>
     <v>       0.00000000       0.00000000      32.43460000 </v>
    </varray>
    <i name="volume">   4033.72191804 </i>
    <varray name="rec_basis" >
     <v>       0.09005926       0.00000000       0.00000000 </v>
     <v>       0.00000000       0.08928412       0.00000000 </v>
     <v>       0.00000000       0.00000000       0.03083127 </v>
    </varray>
   </crystal>
   <varray name="positions" >
    <v>       0.50727895       0.63277016       0.48455031 </v>
    <v>       0.45139105       0.63190984       0.54709969 </v>
   </varray>
  </structure>
  <varray name="forces" >
   <v>       0.15175139       0.00235342      -0.49609012 </v>
   <v>      -0.15175139      -0.00235342       0.49609012 </v>
  </varray>
  <varray name="stress" >
   <v>       0.02946086       0.00058070      -0.12230681 </v>
   <v>       0.00058070      -0.00800308      -0.00189931 </v>
   <v>      -0.12230681      -0.00189931       0.39185549 </v>
  </varray>
  <energy>
   <i name="e_fr_energy">     -2.04026156 </i>
   <i name="e_wo_entrp">     -2.04026156 </i>
   <i name="e_0_energy">     -2.04026156 </i>
  </energy>
  <time name="totalsc">  116.06   98.85</time>
 </calculation>
 <calculation>
  <scstep>
   <time name="dav">    0.06    0.05</time>
   <time name="total">    3.98    3.33</time>
   <energy>
    <i name="alphaZ">      0.00241580 </i>
    <i name="ewald">      4.11155112 </i>
    <i name="hartreedc">    -20.85384369 </i>
    <i name="XCdc">      6.57528023 </i>
    <i name="pawpsdc">      4.47991656 </i>
    <i name="pawaedc">     -4.50098997 </i>
    <i name="eentropy">     -0.00000000 </i>
    <i name="bandstr">    -14.93533046 </i>
    <i name="atom">     24.97394176 </i>
    <i name="e_fr_energy">     -0.14705864 </i>
    <i name="e_wo_entrp">     -0.14705864 </i>
    <i name="e_0_energy">     -0.14705864 </i>
   </energy>
  </scstep>
  <scstep>
   <time name="diag">    0.04    0.01</time>
   <time name="diis">    0.02    0.02</time>
   <time name="orth">    0.00    0.00</time>
   <time name="total">    3.93    3.32</time>
   <energy>
    <i name="e_fr_energy">     -1.19450008 </i>
    <i name="e_wo_entrp">     -1.19450008 </i>
    <i name="e_0_energy">     -1.19450008 </i>
   </energy>
  </scstep>
  <scstep>
   <time name="diag">    0.03    0.01</time>
   <time name="diis">    0.02    0.02</time>
   <time name="orth">    0.00    0.00</time>
   <time name="total">    3.99    3.33</time>
   <energy>
    <i name="e_fr_energy">     -2.00061182 </i>
    <i name="e_wo_entrp">     -2.00061182 </i>
    <i name="e_0_energy">     -2.00061182 </i>
   </energy>
  </scstep>
  <scstep>
   <time name="diag">    0.03    0.01</time>
   <time name="diis">    0.02    0.02</time>
   <time name="orth">    0.00    0.00</time>
   <time name="total">    4.01    3.34</time>
   <energy>
    <i name="e_fr_energy">     -2.01142941 </i>
    <i name="e_wo_entrp">     -2.01142941 </i>
    <i name="e_0_energy">     -2.01142941 </i>
   </energy>
  </scstep>
  <scstep>
   <time name="diag">    0.02    0.01</time>
   <time name="diis">    0.02    0.02</time>
   <time name="orth">    0.00    0.00</time>
   <time name="total">    4.02    3.33</time>
   <energy>
    <i name="e_fr_energy">     -2.04165904 </i>
    <i name="e_wo_entrp">     -2.04165904 </i>
    <i name="e_0_energy">     -2.04165904 </i>
   </energy>
  </scstep>
  <scstep>
   <time name="diag">    0.04    0.02</time>
   <time name="diis">    0.02    0.02</time>
   <time name="orth">    0.00    0.00</time>
   <time name="total">    3.90    3.30</time>
   <energy>
    <i name="e_fr_energy">     -2.08399211 </i>
    <i name="e_wo_entrp">     -2.08399211 </i>
    <i name="e_0_energy">     -2.08399211 </i>
   </energy>
  </scstep>
  <scstep>
   <time name="diag">    0.02    0.01</time>
   <time name="diis">    0.02    0.02</time>
   <time name="orth">    0.00    0.00</time>
   <time name="total">    4.22    3.35</time>
   <energy>
    <i name="e_fr_energy">     -2.08904144 </i>
    <i name="e_wo_entrp">     -2.08904144 </i>
    <i name="e_0_energy">     -2.08904144 </i>
   </energy>
  </scstep>
  <scstep>
   <time name="diag">    0.02    0.02</time>
   <time name="diis">    0.02    0.02</time>
   <time name="orth">    0.00    0.00</time>
   <time name="total">    3.96    3.33</time>
   <energy>
    <i name="e_fr_energy">     -2.09168490 </i>
    <i name="e_wo_entrp">     -2.09168490 </i>
    <i name="e_0_energy">     -2.09168490 </i>
   </energy>
  </scstep>
  <scstep>
   <time name="diag">    0.03    0.01</time>
   <time name="diis">    0.02    0.02</time>
   <time name="orth">    0.00    0.00</time>
   <time name="total">    3.95    3.33</time>
   <energy>
    <i name="e_fr_energy">     -2.09336629 </i>
    <i name="e_wo_entrp">     -2.09336629 </i>
    <i name="e_0_energy">     -2.09336629 </i>
   </energy>
  </scstep>
  <scstep>
   <time name="diag">    0.03    0.01</time>
   <time name="diis">    0.02    0.02</time>
   <time name="orth">    0.00    0.00</time>
   <time name="total">    3.98    3.34</time>
   <energy>
    <i name="e_fr_energy">     -2.09396458 </i>
    <i name="e_wo_entrp">     -2.09396458 </i>
    <i name="e_0_energy">     -2.09396458 </i>
   </energy>
  </scstep>
  <scstep>
   <time name="diag">    0.04    0.01</time>
   <time name="diis">    0.02    0.02</time>
   <time name="orth">    0.00    0.00</time>
   <time name="total">    3.91    3.32</time>
   <energy>
    <i name="e_fr_energy">     -2.09443955 </i>
    <i name="e_wo_entrp">     -2.09443955 </i>
    <i name="e_0_energy">     -2.09443955 </i>
   </energy>
  </scstep>
  <scstep>
   <time name="diag">    0.04    0.02</time>
   <time name="diis">    0.02    0.02</time>
   <time name="orth">    0.00    0.00</time>
   <time name="total">    3.92    3.33</time>
   <energy>
    <i name="e_fr_energy">     -2.09448568 </i>
    <i name="e_wo_entrp">     -2.09448568 </i>
    <i name="e_0_energy">     -2.09448568 </i>
   </energy>
  </scstep>
  <scstep>
   <time name="diag">    0.02    0.01</time>
   <time name="diis">    0.02    0.02</time>
   <time name="orth">    0.00    0.00</time>
   <time name="total">    4.20    3.38</time>
   <energy>
    <i name="e_fr_energy">     -2.09451358 </i>
    <i name="e_wo_entrp">     -2.09451358 </i>
    <i name="e_0_energy">     -2.09451358 </i>
   </energy>
  </scstep>
  <scstep>
   <time name="diag">    0.03    0.01</time>
   <time name="diis">    0.02    0.02</time>
   <time name="orth">    0.00    0.00</time>
   <time name="total">    4.04    3.37</time>
   <energy>
    <i name="e_fr_energy">     -2.09464588 </i>
    <i name="e_wo_entrp">     -2.09464588 </i>
    <i name="e_0_energy">     -2.09464588 </i>
   </energy>
  </scstep>
  <scstep>
   <time name="diag">    0.03    0.01</time>
   <time name="diis">    0.02    0.02</time>
   <time name="orth">    0.00    0.00</time>
   <time name="total">    4.03    3.37</time>
   <energy>
    <i name="e_fr_energy">     -2.09468326 </i>
    <i name="e_wo_entrp">     -2.09468326 </i>
    <i name="e_0_energy">     -2.09468326 </i>
   </energy>
  </scstep>
  <scstep>
   <time name="diag">    0.03    0.01</time>
   <time name="diis">    0.02    0.02</time>
   <time name="orth">    0.00    0.00</time>
   <time name="total">    4.06    3.39</time>
   <energy>
    <i name="e_fr_energy">     -2.09470301 </i>
    <i name="e_wo_entrp">     -2.09470301 </i>
    <i name="e_0_energy">     -2.09470301 </i>
   </energy>
  </scstep>
  <scstep>
   <time name="diag">    0.03    0.01</time>
   <time name="diis">    0.02    0.02</time>
   <time name="orth">    0.00    0.00</time>
   <time name="total">    4.15    3.41</time>
   <energy>
    <i name="e_fr_energy">     -2.09472627 </i>
    <i name="e_wo_entrp">     -2.09472627 </i>
    <i name="e_0_energy">     -2.09472627 </i>
   </energy>
  </scstep>
  <scstep>
   <time name="diag">    0.04    0.01</time>
   <time name="diis">    0.02    0.02</time>
   <time name="orth">    0.00    0.00</time>
   <time name="total">    4.20    3.37</time>
   <energy>
    <i name="e_fr_energy">     -2.09473278 </i>
    <i name="e_wo_entrp">     -2.09473278 </i>
    <i name="e_0_energy">     -2.09473278 </i>
   </energy>
  </scstep>
  <scstep>
   <time name="diag">    0.02    0.01</time>
   <time name="diis">    0.02    0.02</time>
   <time name="orth">    0.00    0.00</time>
   <time name="total">    4.13    3.36</time>
   <energy>
    <i name="e_fr_energy">     -2.09474575 </i>
    <i name="e_wo_entrp">     -2.09474575 </i>
    <i name="e_0_energy">     -2.09474575 </i>
   </energy>
  </scstep>
  <scstep>
   <time name="diag">    0.03    0.01</time>
   <time name="diis">    0.02    0.02</time>
   <time name="orth">    0.00    0.00</time>
   <time name="total">    1.90    1.63</time>
   <energy>
    <i name="alphaZ">      0.00241580 </i>
    <i name="ewald">      4.11155112 </i>
    <i name="hartreedc">    -20.82763011 </i>
    <i name="XCdc">      4.75720542 </i>
    <i name="pawpsdc">      4.43702266 </i>
    <i name="pawaedc">     -4.45793332 </i>
    <i name="eentropy">     -0.00000000 </i>
    <i name="bandstr">    -15.09131875 </i>
    <i name="atom">     24.97394176 </i>
    <i name="e_fr_energy">     -2.09474542 </i>
    <i name="e_wo_entrp">     -2.09474542 </i>
    <i name="e_0_energy">     -2.09474542 </i>
   </energy>
  </scstep>
  <structure>
   <crystal>
    <varray name="basis" >
     <v>      11.10380000       0.00000000       0.00000000 </v>
     <v>       0.00000000      11.20020000       0.00000000 </v>
     <v>       0.00000000       0.00000000      32.43460000 </v>
    </varray>
    <i name="volume">   4033.72191804 </i>
    <varray name="rec_basis" >
     <v>       0.09005926       0.00000000       0.00000000 </v>
     <v>       0.00000000       0.08928412       0.00000000 </v>
     <v>       0.00000000       0.00000000       0.03083127 </v>
    </varray>
   </crystal>
   <varray name="positions" >
    <v>       0.50888566       0.63279490       0.48275194 </v>
    <v>       0.44978434       0.63188510       0.54889806 </v>
   </varray>
  </structure>
  <varray name="forces" >
   <v>       0.11146376       0.00173051      -0.36440084 </v>
   <v>      -0.11146376      -0.00173051       0.36440084 </v>
  </varray>
  <varray name="stress" >
   <v>       0.02114562       0.00045135      -0.09503007 </v>
   <v>       0.00045135      -0.00797622      -0.00147575 </v>
   <v>      -0.09503007      -0.00147575       0.30271394 </v>
  </varray>
  <energy>
   <i name="e_fr_energy">     -2.09474542 </i>
   <i name="e_wo_entrp">     -2.09474542 </i>
   <i name="e_0_energy">     -2.09474542 </i>
  </energy>
  <time name="totalsc">  123.42  105.01</time>
 </calculation>
 <calculation>
  <scstep>
   <time name="dav">    0.07    0.05</time>
   <time name="total">    4.39    3.36</time>
   <energy>
    <i name="alphaZ">      0.00241580 </i>
    <i name="ewald">      3.45977287 </i>
    <i name="hartreedc">    -20.23154358 </i>
    <i name="XCdc">      8.28562568 </i>
    <i name="pawpsdc">      4.43704416 </i>
    <i name="pawaedc">     -4.45795550 </i>
    <i name="eentropy">     -0.00000000 </i>
    <i name="bandstr">    -14.79258890 </i>
    <i name="atom">     24.97394176 </i>
    <i name="e_fr_energy">      1.67671228 </i>
    <i name="e_wo_entrp">      1.67671228 </i>
    <i name="e_0_energy">      1.67671228 </i>
   </energy>
  </scstep>
  <scstep>
   <time name="diag">    0.03    0.01</time>
   <time name="diis">    0.02    0.02</time>
   <time name="orth">    0.00    0.00</time>
   <time name="total">    4.02    3.33</time>
   <energy>
    <i name="e_fr_energy">     -0.34223499 </i>
    <i name="e_wo_entrp">     -0.34223499 </i>
    <i name="e_0_energy">     -0.34223499 </i>
   </energy>
  </scstep>
  <scstep>
   <time name="diag">    0.05    0.02</time>
   <time name="diis">    0.02    0.02</time>
   <time name="orth">    0.00    0.00</time>
   <time name="total">    4.04    3.35</time>
   <energy>
    <i name="e_fr_energy">     -1.95751379 </i>
    <i name="e_wo_entrp">     -1.95751379 </i>
    <i name="e_0_energy">     -1.95751379 </i>
   </energy>
  </scstep>
  <scstep>
   <time name="diag">    0.02    0.01</time>
   <time name="diis">    0.02    0.02</time>
   <time name="orth">    0.00    0.00</time>
   <time name="total">    4.01    3.35</time>
   <energy>
    <i name="e_fr_energy">     -1.97793091 </i>
    <i name="e_wo_entrp">     -1.97793091 </i>
    <i name="e_0_energy">     -1.97793091 </i>
   </energy>
  </scstep>
  <scstep>
   <time name="diag">    0.02    0.01</time>
   <time name="diis">    0.02    0.02</time>
   <time name="orth">    0.00    0.00</time>
   <time name="total">    3.96    3.35</time>
   <energy>
    <i name="e_fr_energy">     -2.03661248 </i>
    <i name="e_wo_entrp">     -2.03661248 </i>
    <i name="e_0_energy">     -2.03661248 </i>
   </energy>
  </scstep>
  <scstep>
   <time name="diag">    0.04    0.01</time>
   <time name="diis">    0.02    0.02</time>
   <time name="orth">    0.00    0.00</time>
   <time name="total">    3.87    3.31</time>
   <energy>
    <i name="e_fr_energy">     -2.14269149 </i>
    <i name="e_wo_entrp">     -2.14269149 </i>
    <i name="e_0_energy">     -2.14269149 </i>
   </energy>
  </scstep>
  <scstep>
   <time name="diag">    0.04    0.01</time>
   <time name="diis">    0.02    0.02</time>
   <time name="orth">    0.00    0.00</time>
   <time name="total">    3.95    3.32</time>
   <energy>
    <i name="e_fr_energy">     -2.15690339 </i>
    <i name="e_wo_entrp">     -2.15690339 </i>
    <i name="e_0_energy">     -2.15690339 </i>
   </energy>
  </scstep>
  <scstep>
   <time name="diag">    0.04    0.02</time>
   <time name="diis">    0.02    0.02</time>
   <time name="orth">    0.00    0.00</time>
   <time name="total">    3.88    3.32</time>
   <energy>
    <i name="e_fr_energy">     -2.15900513 </i>
    <i name="e_wo_entrp">     -2.15900512 </i>
    <i name="e_0_energy">     -2.15900512 </i>
   </energy>
  </scstep>
  <scstep>
   <time name="diag">    0.03    0.01</time>
   <time name="diis">    0.02    0.02</time>
   <time name="orth">    0.00    0.00</time>
   <time name="total">    4.11    3.35</time>
   <energy>
    <i name="e_fr_energy">     -2.16162298 </i>
    <i name="e_wo_entrp">     -2.16162298 </i>
    <i name="e_0_energy">     -2.16162298 </i>
   </energy>
  </scstep>
  <scstep>
   <time name="diag">    0.03    0.01</time>
   <time name="diis">    0.02    0.02</time>
   <time name="orth">    0.00    0.00</time>
   <time name="total">    3.98    3.35</time>
   <energy>
    <i name="e_fr_energy">     -2.16204925 </i>
    <i name="e_wo_entrp">     -2.16204925 </i>
    <i name="e_0_energy">     -2.16204925 </i>
   </energy>
  </scstep>
  <scstep>
   <time name="diag">    0.04    0.01</time>
   <time name="diis">    0.02    0.02</time>
   <time name="orth">    0.00    0.00</time>
   <time name="total">    3.94    3.34</time>
   <energy>
    <i name="e_fr_energy">     -2.16311825 </i>
    <i name="e_wo_entrp">     -2.16311825 </i>
    <i name="e_0_energy">     -2.16311825 </i>
   </energy>
  </scstep>
  <scstep>
   <time name="diag">    0.04    0.01</time>
   <time name="diis">    0.02    0.02</time>
   <time name="orth">    0.00    0.00</time>
   <time name="total">    3.96    3.34</time>
   <energy>
    <i name="e_fr_energy">     -2.16335847 </i>
    <i name="e_wo_entrp">     -2.16335847 </i>
    <i name="e_0_energy">     -2.16335847 </i>
   </energy>
  </scstep>
  <scstep>
   <time name="diag">    0.02    0.01</time>
   <time name="diis">    0.02    0.02</time>
   <time name="orth">    0.00    0.00</time>
   <time name="total">    4.00    3.35</time>
   <energy>
    <i name="e_fr_energy">     -2.16350486 </i>
    <i name="e_wo_entrp">     -2.16350486 </i>
    <i name="e_0_energy">     -2.16350486 </i>
   </energy>
  </scstep>
  <scstep>
   <time name="diag">    0.02    0.01</time>
   <time name="diis">    0.02    0.02</time>
   <time name="orth">    0.00    0.00</time>
   <time name="total">    3.97    3.36</time>
   <energy>
    <i name="e_fr_energy">     -2.16369680 </i>
    <i name="e_wo_entrp">     -2.16369680 </i>
    <i name="e_0_energy">     -2.16369680 </i>
   </energy>
  </scstep>
  <scstep>
   <time name="diag">    0.02    0.01</time>
   <time name="diis">    0.02    0.02</time>
   <time name="orth">    0.00    0.00</time>
   <time name="total">    4.01    3.36</time>
   <energy>
    <i name="e_fr_energy">     -2.16371227 </i>
    <i name="e_wo_entrp">     -2.16371227 </i>
    <i name="e_0_energy">     -2.16371227 </i>
   </energy>
  </scstep>
  <scstep>
   <time name="diag">    0.03    0.01</time>
   <time name="diis">    0.02    0.02</time>
   <time name="orth">    0.00    0.00</time>
   <time name="total">    4.18    3.38</time>
   <energy>
    <i name="e_fr_energy">     -2.16377599 </i>
    <i name="e_wo_entrp">     -2.16377599 </i>
    <i name="e_0_energy">     -2.16377599 </i>
   </energy>
  </scstep>
  <scstep>
   <time name="diag">    0.02    0.01</time>
   <time name="diis">    0.02    0.02</time>
   <time name="orth">    0.00    0.00</time>
   <time name="total">    4.08    3.39</time>
   <energy>
    <i name="e_fr_energy">     -2.16380947 </i>
    <i name="e_wo_entrp">     -2.16380947 </i>
    <i name="e_0_energy">     -2.16380947 </i>
   </energy>
  </scstep>
  <scstep>
   <time name="diag">    0.02    0.01</time>
   <time name="diis">    0.02    0.02</time>
   <time name="orth">    0.00    0.00</time>
   <time name="total">    4.02    3.37</time>
   <energy>
    <i name="e_fr_energy">     -2.16383589 </i>
    <i name="e_wo_entrp">     -2.16383589 </i>
    <i name="e_0_energy">     -2.16383589 </i>
   </energy>
  </scstep>
  <scstep>
   <time name="diag">    0.04    0.01</time>
   <time name="diis">    0.02    0.02</time>
   <time name="orth">    0.00    0.00</time>
   <time name="total">    3.96    3.38</time>
   <energy>
    <i name="e_fr_energy">     -2.16384089 </i>
    <i name="e_wo_entrp">     -2.16384089 </i>
    <i name="e_0_energy">     -2.16384089 </i>
   </energy>
  </scstep>
  <scstep>
   <time name="diag">    0.03    0.01</time>
   <time name="diis">    0.02    0.02</time>
   <time name="orth">    0.00    0.00</time>
   <time name="total">    4.13    3.40</time>
   <energy>
    <i name="e_fr_energy">     -2.16384623 </i>
    <i name="e_wo_entrp">     -2.16384623 </i>
    <i name="e_0_energy">     -2.16384623 </i>
   </energy>
  </scstep>
  <scstep>
   <time name="diag">    0.04    0.01</time>
   <time name="diis">    0.02    0.02</time>
   <time name="orth">    0.00    0.00</time>
   <time name="total">    4.02    3.39</time>
   <energy>
    <i name="e_fr_energy">     -2.16384825 </i>
    <i name="e_wo_entrp">     -2.16384825 </i>
    <i name="e_0_energy">     -2.16384825 </i>
   </energy>
  </scstep>
  <scstep>
   <time name="diag">    0.04    0.01</time>
   <time name="diis">    0.02    0.02</time>
   <time name="orth">    0.00    0.00</time>
   <time name="total">    4.03    3.40</time>
   <energy>
    <i name="e_fr_energy">     -2.16384687 </i>
    <i name="e_wo_entrp">     -2.16384687 </i>
    <i name="e_0_energy">     -2.16384687 </i>
   </energy>
  </scstep>
  <scstep>
   <time name="diag">    0.03    0.01</time>
   <time name="diis">    0.02    0.02</time>
   <time name="orth">    0.00    0.00</time>
   <time name="total">    1.84    1.64</time>
   <energy>
    <i name="alphaZ">      0.00241580 </i>
    <i name="ewald">      3.45977287 </i>
    <i name="hartreedc">    -20.19188617 </i>
    <i name="XCdc">      4.72391747 </i>
    <i name="pawpsdc">      4.37304978 </i>
    <i name="pawaedc">     -4.39371892 </i>
    <i name="eentropy">     -0.00000000 </i>
    <i name="bandstr">    -15.11134015 </i>
    <i name="atom">     24.97394176 </i>
    <i name="e_fr_energy">     -2.16384756 </i>
    <i name="e_wo_entrp">     -2.16384756 </i>
    <i name="e_0_energy">     -2.16384756 </i>
   </energy>
  </scstep>
  <structure>
   <crystal>
    <varray name="basis" >
     <v>      11.10380000       0.00000000       0.00000000 </v>
     <v>       0.00000000      11.20020000       0.00000000 </v>
     <v>       0.00000000       0.00000000      32.43460000 </v>
    </varray>
    <i name="volume">   4033.72191804 </i>
    <varray name="rec_basis" >
     <v>       0.09005926       0.00000000       0.00000000 </v>
     <v>       0.00000000       0.08928412       0.00000000 </v>
     <v>       0.00000000       0.00000000       0.03083127 </v>
    </varray>
   </crystal>
   <varray name="positions" >
    <v>       0.51209909       0.63284437       0.47915522 </v>
    <v>       0.44657091       0.63183563       0.55249478 </v>
   </varray>
  </structure>
  <varray name="forces" >
   <v>       0.05939732       0.00092052      -0.19418834 </v>
   <v>      -0.05939732      -0.00092052       0.19418834 </v>
  </varray>
  <varray name="stress" >
   <v>       0.00927729       0.00026658      -0.05610612 </v>
   <v>       0.00026658      -0.00794048      -0.00087104 </v>
   <v>      -0.05610612      -0.00087104       0.17551188 </v>
  </varray>
  <energy>
   <i name="e_fr_energy">     -2.16384756 </i>
   <i name="e_wo_entrp">     -2.16384756 </i>
   <i name="e_0_energy">     -2.16384756 </i>
  </energy>
  <time name="totalsc">  136.02  115.79</time>
 </calculation>
 <calculation>
  <scstep>
   <time name="dav">    0.07    0.05</time>
   <time name="total">    4.44    3.52</time>
   <energy>
    <i name="alphaZ">      0.00241580 </i>
    <i name="ewald">      2.45997788 </i>
    <i name="hartreedc">    -19.19324381 </i>
    <i name="XCdc">     11.21930919 </i>
    <i name="pawpsdc">      4.37304394 </i>
    <i name="pawaedc">     -4.39371351 </i>
    <i name="eentropy">     -0.00000000 </i>
    <i name="bandstr">    -14.46575250 </i>
    <i name="atom">     24.97394176 </i>
    <i name="e_fr_energy">      4.97597874 </i>
    <i name="e_wo_entrp">      4.97597874 </i>
    <i name="e_0_energy">      4.97597874 </i>
   </energy>
  </scstep>
  <scstep>
   <time name="diag">    0.03    0.01</time>
   <time name="diis">    0.02    0.02</time>
   <time name="orth">    0.00    0.00</time>
   <time name="total">    4.14    3.35</time>
   <energy>
    <i name="e_fr_energy">      1.42786876 </i>
    <i name="e_wo_entrp">      1.42786876 </i>
    <i name="e_0_energy">      1.42786876 </i>
   </energy>
  </scstep>
  <scstep>
   <time name="diag">    0.02    0.01</time>
   <time name="diis">    0.02    0.02</time>
   <time name="orth">    0.00    0.00</time>
   <time name="total">    4.00    3.35</time>
   <energy>
    <i name="e_fr_energy">     -1.72545173 </i>
    <i name="e_wo_entrp">     -1.72545173 </i>
    <i name="e_0_energy">     -1.72545173 </i>
   </energy>
  </scstep>
  <scstep>
   <time name="diag">    0.03    0.01</time>
   <time name="diis">    0.02    0.02</time>
   <time name="orth">    0.00    0.00</time>
   <time name="total">    3.89    3.32</time>
   <energy>
    <i name="e_fr_energy">     -1.76403931 </i>
    <i name="e_wo_entrp">     -1.76403931 </i>
    <i name="e_0_energy">     -1.76403931 </i>
   </energy>
  </scstep>
  <scstep>
   <time name="diag">    0.04    0.01</time>
   <time name="diis">    0.02    0.02</time>
   <time name="orth">    0.00    0.00</time>
   <time name="total">    3.97    3.33</time>
   <energy>
    <i name="e_fr_energy">     -1.87381895 </i>
    <i name="e_wo_entrp">     -1.87381895 </i>
    <i name="e_0_energy">     -1.87381895 </i>
   </energy>
  </scstep>
  <scstep>
   <time name="diag">    0.03    0.01</time>
   <time name="diis">    0.02    0.02</time>
   <time name="orth">    0.00    0.00</time>
   <time name="total">    4.15    3.34</time>
   <energy>
    <i name="e_fr_energy">     -2.17945231 </i>
    <i name="e_wo_entrp">     -2.17945231 </i>
    <i name="e_0_energy">     -2.17945231 </i>
   </energy>
  </scstep>
  <scstep>
   <time name="diag">    0.02    0.01</time>
   <time name="diis">    0.02    0.02</time>
   <time name="orth">    0.00    0.00</time>
   <time name="total">    4.01    3.34</time>
   <energy>
    <i name="e_fr_energy">     -2.20378587 </i>
    <i name="e_wo_entrp">     -2.20378587 </i>
    <i name="e_0_energy">     -2.20378587 </i>
   </energy>
  </scstep>
  <scstep>
   <time name="diag">    0.04    0.01</time>
   <time name="diis">    0.02    0.02</time>
   <time name="orth">    0.00    0.00</time>
   <time name="total">    3.95    3.35</time>
   <energy>
    <i name="e_fr_energy">     -2.21162819 </i>
    <i name="e_wo_entrp">     -2.21162819 </i>
    <i name="e_0_energy">     -2.21162819 </i>
   </energy>
  </scstep>
  <scstep>
   <time name="diag">    0.04    0.01</time>
   <time name="diis">    0.02    0.02</time>
   <time name="orth">    0.00    0.00</time>
   <time name="total">    3.92    3.32</time>
   <energy>
    <i name="e_fr_energy">     -2.21523177 </i>
    <i name="e_wo_entrp">     -2.21523177 </i>
    <i name="e_0_energy">     -2.21523177 </i>
   </energy>
  </scstep>
  <scstep>
   <time name="diag">    0.03    0.01</time>
   <time name="diis">    0.02    0.02</time>
   <time name="orth">    0.00    0.00</time>
   <time name="total">    4.01    3.35</time>
   <energy>
    <i name="e_fr_energy">     -2.21561244 </i>
    <i name="e_wo_entrp">     -2.21561244 </i>
    <i name="e_0_energy">     -2.21561244 </i>
   </energy>
  </scstep>
  <scstep>
   <time name="diag">    0.04    0.01</time>
   <time name="diis">    0.02    0.02</time>
   <time name="orth">    0.00    0.00</time>
   <time name="total">    4.10    3.37</time>
   <energy>
    <i name="e_fr_energy">     -2.21714302 </i>
    <i name="e_wo_entrp">     -2.21714302 </i>
    <i name="e_0_energy">     -2.21714302 </i>
   </energy>
  </scstep>
  <scstep>
   <time name="diag">    0.04    0.01</time>
   <time name="diis">    0.02    0.02</time>
   <time name="orth">    0.00    0.00</time>
   <time name="total">    4.00    3.36</time>
   <energy>
    <i name="e_fr_energy">     -2.21755212 </i>
    <i name="e_wo_entrp">     -2.21755212 </i>
    <i name="e_0_energy">     -2.21755212 </i>
   </energy>
  </scstep>
  <scstep>
   <time name="diag">    0.02    0.01</time>
   <time name="diis">    0.02    0.02</time>
   <time name="orth">    0.00    0.00</time>
   <time name="total">    4.21    3.37</time>
   <energy>
    <i name="e_fr_energy">     -2.21853153 </i>
    <i name="e_wo_entrp">     -2.21853153 </i>
    <i name="e_0_energy">     -2.21853153 </i>
   </energy>
  </scstep>
  <scstep>
   <time name="diag">    0.04    0.01</time>
   <time name="diis">    0.02    0.02</time>
   <time name="orth">    0.00    0.00</time>
   <time name="total">    4.13    3.34</time>
   <energy>
    <i name="e_fr_energy">     -2.21894207 </i>
    <i name="e_wo_entrp">     -2.21894207 </i>
    <i name="e_0_energy">     -2.21894207 </i>
   </energy>
  </scstep>
  <scstep>
   <time name="diag">    0.04    0.02</time>
   <time name="diis">    0.02    0.02</time>
   <time name="orth">    0.00    0.00</time>
   <time name="total">    3.92    3.34</time>
   <energy>
    <i name="e_fr_energy">     -2.21907157 </i>
    <i name="e_wo_entrp">     -2.21907157 </i>
    <i name="e_0_energy">     -2.21907157 </i>
   </energy>
  </scstep>
  <scstep>
   <time name="diag">    0.03    0.02</time>
   <time name="diis">    0.02    0.02</time>
   <time name="orth">    0.00    0.00</time>
   <time name="total">    4.01    3.35</time>
   <energy>
    <i name="e_fr_energy">     -2.21913788 </i>
    <i name="e_wo_entrp">     -2.21913788 </i>
    <i name="e_0_energy">     -2.21913788 </i>
   </energy>
  </scstep>
  <scstep>
   <time name="diag">    0.04    0.01</time>
   <time name="diis">    0.02    0.02</time>
   <time name="orth">    0.00    0.00</time>
   <time name="total">    4.06    3.42</time>
   <energy>
    <i name="e_fr_energy">     -2.21918329 </i>
    <i name="e_wo_entrp">     -2.21918329 </i>
    <i name="e_0_energy">     -2.21918329 </i>
   </energy>
  </scstep>
  <scstep>
   <time name="diag">    0.03    0.01</time>
   <time name="diis">    0.02    0.02</time>
   <time name="orth">    0.00    0.00</time>
   <time name="total">    4.24    3.42</time>
   <energy>
    <i name="e_fr_energy">     -2.21921242 </i>
    <i name="e_wo_entrp">     -2.21921242 </i>
    <i name="e_0_energy">     -2.21921242 </i>
   </energy>
  </scstep>
  <scstep>
   <time name="diag">    0.02    0.01</time>
   <time name="diis">    0.02    0.02</time>
   <time name="orth">    0.00    0.00</time>
   <time name="total">    4.09    3.38</time>
   <energy>
    <i name="e_fr_energy">     -2.21922235 </i>
    <i name="e_wo_entrp">     -2.21922235 </i>
    <i name="e_0_energy">     -2.21922235 </i>
   </energy>
  </scstep>
  <scstep>
   <time name="diag">    0.04    0.01</time>
   <time name="diis">    0.02    0.02</time>
   <time name="orth">    0.00    0.00</time>
   <time name="total">    4.06    3.38</time>
   <energy>
    <i name="e_fr_energy">     -2.21922705 </i>
    <i name="e_wo_entrp">     -2.21922705 </i>
    <i name="e_0_energy">     -2.21922705 </i>
   </energy>
  </scstep>
  <scstep>
   <time name="diag">    0.04    0.01</time>
   <time name="diis">    0.02    0.02</time>
   <time name="orth">    0.00    0.00</time>
   <time name="total">    4.17    3.37</time>
   <energy>
    <i name="e_fr_energy">     -2.21922903 </i>
    <i name="e_wo_entrp">     -2.21922903 </i>
    <i name="e_0_energy">     -2.21922903 </i>
   </energy>
  </scstep>
  <scstep>
   <time name="diag">    0.02    0.01</time>
   <time name="diis">    0.02    0.02</time>
   <time name="orth">    0.00    0.00</time>
   <time name="total">    4.08    3.40</time>
   <energy>
    <i name="e_fr_energy">     -2.21923024 </i>
    <i name="e_wo_entrp">     -2.21923024 </i>
    <i name="e_0_energy">     -2.21923024 </i>
   </energy>
  </scstep>
  <scstep>
   <time name="diag">    0.03    0.01</time>
   <time name="diis">    0.02    0.02</time>
   <time name="orth">    0.00    0.00</time>
   <time name="total">    1.87    1.64</time>
   <energy>
    <i name="alphaZ">      0.00241580 </i>
    <i name="ewald">      2.45997788 </i>
    <i name="hartreedc">    -19.18022304 </i>
    <i name="XCdc">      4.68770307 </i>
    <i name="pawpsdc">      4.30481415 </i>
    <i name="pawaedc">     -4.32523286 </i>
    <i name="eentropy">     -0.00000000 </i>
    <i name="bandstr">    -15.14262765 </i>
    <i name="atom">     24.97394176 </i>
    <i name="e_fr_energy">     -2.21923091 </i>
    <i name="e_wo_entrp">     -2.21923091 </i>
    <i name="e_0_energy">     -2.21923091 </i>
   </energy>
  </scstep>
  <structure>
   <crystal>
    <varray name="basis" >
     <v>      11.10380000       0.00000000       0.00000000 </v>
[...]
        <r>    -1.7872     0.0000     0.0000     0.0000     0.0000     0.0000     0.0000     0.0000     0.0000     0.0000 </r>
        <r>    -1.7539     0.0000     0.0000     0.0000     0.0000     0.0000     0.0000     0.0000     0.0000     0.0000 </r>
        <r>    -1.7206     0.0000     0.0000     0.0000     0.0000     0.0000     0.0000     0.0000     0.0000     0.0000 </r>
        <r>    -1.6873     0.0000     0.0000     0.0000     0.0000     0.0000     0.0000     0.0000     0.0000     0.0000 </r>
        <r>    -1.6539     0.0000     0.0000     0.0000     0.0000     0.0000     0.0000     0.0000     0.0000     0.0000 </r>
        <r>    -1.6206     0.0000     0.0000     0.0000     0.0000     0.0000     0.0000     0.0000     0.0000     0.0000 </r>
        <r>    -1.5873     0.0000     0.0000     0.0000     0.0000     0.0000     0.0000     0.0000     0.0000     0.0000 </r>
        <r>    -1.5540     0.0000     0.0000     0.0000     0.0000     0.0000     0.0000     0.0000     0.0000     0.0000 </r>
        <r>    -1.5206     0.0000     0.0000     0.0000     0.0000     0.0000     0.0000     0.0000     0.0000     0.0000 </r>
        <r>    -1.4873     0.0000     0.0000     0.0000     0.0000     0.0000     0.0000     0.0000     0.0000     0.0000 </r>
        <r>    -1.4540     0.0000     0.0000     0.0000     0.0000     0.0000     0.0000     0.0000     0.0000     0.0000 </r>
        <r>    -1.4207     0.0000     0.0000     0.0000     0.0000     0.0000     0.0000     0.0000     0.0000     0.0000 </r>
        <r>    -1.3874     0.0000     0.0000     0.0000     0.0000     0.0000     0.0000     0.0000     0.0000     0.0000 </r>
        <r>    -1.3540     0.0000     0.0000     0.0000     0.0000     0.0000     0.0000     0.0000     0.0000     0.0000 </r>
        <r>    -1.3207     0.0000     0.0000     0.0000     0.0000     0.0000     0.0000     0.0000     0.0000     0.0000 </r>
        <r>    -1.2874     0.0000     0.0000     0.0000     0.0000     0.0000     0.0000     0.0000     0.0000     0.0000 </r>
        <r>    -1.2541     0.0000     0.0000     0.0000     0.0000     0.0000     0.0000     0.0000     0.0000     0.0000 </r>
        <r>    -1.2207     0.0000     0.0000     0.0000     0.0000     0.0000     0.0000     0.0000     0.0000     0.0000 </r>
        <r>    -1.1874     0.0000     0.0000     0.0000     0.0000     0.0000     0.0000     0.0000     0.0000     0.0000 </r>
        <r>    -1.1541     0.0000     0.0000     0.0000     0.0000     0.0000     0.0000     0.0000     0.0000     0.0000 </r>
        <r>    -1.1208     0.0000     0.0000     0.0000     0.0000     0.0000     0.0000     0.0000     0.0000     0.0000 </r>
        <r>    -1.0874     0.0000     0.0000     0.0000     0.0000     0.0000     0.0000     0.0000     0.0000     0.0000 </r>
        <r>    -1.0541     0.0000     0.0000     0.0000     0.0000     0.0000     0.0000     0.0000     0.0000     0.0000 </r>
        <r>    -1.0208     0.0000     0.0000     0.0000     0.0000     0.0000     0.0000     0.0000     0.0000     0.0000 </r>
        <r>    -0.9875     0.0000     0.0000     0.0000     0.0000     0.0000     0.0000     0.0000     0.0000     0.0000 </r>
        <r>    -0.9542     0.0000     0.0000     0.0000     0.0000     0.0000     0.0000     0.0000     0.0000     0.0000 </r>
        <r>    -0.9208     0.0000     0.0000     0.0000     0.0000     0.0000     0.0000     0.0000     0.0000     0.0000 </r>
        <r>    -0.8875     0.0000     0.0000     0.0000     0.0000     0.0000     0.0000     0.0000     0.0000     0.0000 </r>
        <r>    -0.8542     0.0000     0.0000     0.0000     0.0000     0.0000     0.0000     0.0000     0.0000     0.0000 </r>
        <r>    -0.8209     0.0000     0.0000     0.0000     0.0000     0.0000     0.0000     0.0000     0.0000     0.0000 </r>
        <r>    -0.7875     0.0000     0.0000     0.0000     0.0000     0.0000     0.0000     0.0000     0.0000     0.0000 </r>
        <r>    -0.7542     0.0000     0.0000     0.0000     0.0000     0.0000     0.0000     0.0000     0.0000     0.0000 </r>
        <r>    -0.7209     0.0000     0.0000     0.0000     0.0000     0.0000     0.0000     0.0000     0.0000     0.0000 </r>
        <r>    -0.6876     0.0000     0.0000     0.0000     0.0000     0.0000     0.0000     0.0000     0.0000     0.0000 </r>
        <r>    -0.6542     0.0000     0.0000     0.0000     0.0000     0.0000     0.0000     0.0000     0.0000     0.0000 </r>
        <r>    -0.6209     0.0000     0.0000     0.0000     0.0000     0.0000     0.0000     0.0000     0.0000     0.0000 </r>
        <r>    -0.5876     0.0000     0.0000     0.0000     0.0000     0.0000     0.0000     0.0000     0.0000     0.0000 </r>
        <r>    -0.5543     0.0000     0.0000     0.0000     0.0000     0.0000     0.0000     0.0000     0.0000     0.0000 </r>
        <r>    -0.5209     0.0000     0.0000     0.0000     0.0000     0.0000     0.0000     0.0000     0.0000     0.0000 </r>
        <r>    -0.4876     0.0000     0.0000     0.0000     0.0000     0.0000     0.0000     0.0000     0.0000     0.0000 </r>
        <r>    -0.4543     0.0000     0.0000     0.0000     0.0000     0.0000     0.0000     0.0000     0.0000     0.0000 </r>
        <r>    -0.4210     0.0000     0.0000     0.0000     0.0000     0.0000     0.0000     0.0000     0.0000     0.0000 </r>
        <r>    -0.3877     0.0000     0.0000     0.0000     0.0000     0.0000     0.0000     0.0000     0.0000     0.0000 </r>
        <r>    -0.3543     0.0000     0.0000     0.0000     0.0000     0.0000     0.0000     0.0000     0.0000     0.0000 </r>
        <r>    -0.3210     0.0000     0.0000     0.0000     0.0000     0.0000     0.0000     0.0000     0.0000     0.0000 </r>
        <r>    -0.2877     0.0000     0.0000     0.0000     0.0000     0.0000     0.0000     0.0000     0.0000     0.0000 </r>
        <r>    -0.2544     0.0000     0.0000     0.0000     0.0000     0.0000     0.0000     0.0000     0.0000     0.0000 </r>
        <r>    -0.2210     0.0000     0.0000     0.0000     0.0000     0.0000     0.0000     0.0000     0.0000     0.0000 </r>
        <r>    -0.1877     0.0000     0.0000     0.0000     0.0000     0.0000     0.0000     0.0000     0.0000     0.0000 </r>
        <r>    -0.1544     0.0000     0.0000     0.0000     0.0000     0.0000     0.0000     0.0000     0.0000     0.0000 </r>
        <r>    -0.1211     0.0000     0.0000     0.0000     0.0000     0.0000     0.0000     0.0000     0.0000     0.0000 </r>
        <r>    -0.0877     0.0000     0.0000     0.0000     0.0000     0.0000     0.0000     0.0000     0.0000     0.0000 </r>
        <r>    -0.0544     0.0000     0.0000     0.0000     0.0000     0.0000     0.0000     0.0000     0.0000     0.0000 </r>
        <r>    -0.0211     0.0000     0.0000     0.0000     0.0000     0.0000     0.0000     0.0000     0.0000     0.0000 </r>
        <r>     0.0122     0.0000     0.0000     0.0000     0.0000     0.0000     0.0000     0.0000     0.0000     0.0000 </r>
        <r>     0.0455     0.0000     0.0000     0.0000     0.0000     0.0000     0.0000     0.0000     0.0000     0.0000 </r>
        <r>     0.0789     0.0000     0.0000     0.0000     0.0000     0.0000     0.0000     0.0000     0.0000     0.0000 </r>
        <r>     0.1122     0.0000     0.0000     0.0000     0.0000     0.0000     0.0000     0.0000     0.0000     0.0000 </r>
        <r>     0.1455     0.0000     0.0000     0.0000     0.0000     0.0000     0.0000     0.0000     0.0000     0.0000 </r>
        <r>     0.1788     0.0001     0.0000     0.0000     0.0000     0.0000     0.0000     0.0000     0.0000     0.0000 </r>
        <r>     0.2122     0.0001     0.0000     0.0000     0.0000     0.0000     0.0000     0.0000     0.0000     0.0000 </r>
        <r>     0.2455     0.0001     0.0000     0.0000     0.0000     0.0000     0.0000     0.0000     0.0000     0.0000 </r>
        <r>     0.2788     0.0000     0.0000     0.0000     0.0000     0.0000     0.0000     0.0000     0.0000     0.0000 </r>
        <r>     0.3121     0.0000     0.0000     0.0000     0.0000     0.0000     0.0000     0.0000     0.0000     0.0000 </r>
        <r>     0.3455     0.0000     0.0000     0.0000     0.0000     0.0000     0.0000     0.0000     0.0000     0.0000 </r>
        <r>     0.3788     0.0000     0.0000     0.0000     0.0000     0.0000     0.0000     0.0000     0.0000     0.0000 </r>
        <r>     0.4121     0.0000     0.0000     0.0000     0.0000     0.0000     0.0000     0.0000     0.0000     0.0000 </r>
        <r>     0.4454     0.0000     0.0000     0.0000     0.0000     0.0000     0.0000     0.0000     0.0000     0.0000 </r>
        <r>     0.4787     0.0000     0.0000     0.0000     0.0000     0.0000     0.0000     0.0000     0.0000     0.0000 </r>
        <r>     0.5121     0.0000     0.0000     0.0000     0.0000     0.0000     0.0000     0.0000     0.0000     0.0000 </r>
        <r>     0.5454     0.0000     0.0000     0.0000     0.0000     0.0000     0.0000     0.0000     0.0000     0.0000 </r>
        <r>     0.5787     0.0000     0.0000     0.0000     0.0000     0.0000     0.0000     0.0000     0.0000     0.0000 </r>
        <r>     0.6120     0.0000     0.0000     0.0000     0.0000     0.0000     0.0000     0.0000     0.0000     0.0000 </r>
        <r>     0.6454     0.0000     0.0000     0.0000     0.0000     0.0000     0.0000     0.0000     0.0000     0.0000 </r>
        <r>     0.6787     0.0000     0.0000     0.0000     0.0000     0.0000     0.0000     0.0000     0.0000     0.0000 </r>
        <r>     0.7120     0.0000     0.0000     0.0000     0.0000     0.0000     0.0000     0.0000     0.0000     0.0000 </r>
        <r>     0.7453     0.0000     0.0000     0.0000     0.0000     0.0000     0.0000     0.0000     0.0000     0.0000 </r>
        <r>     0.7787     0.0000     0.0000     0.0000     0.0000     0.0000     0.0000     0.0000     0.0000     0.0000 </r>
        <r>     0.8120     0.0000     0.0000     0.0000     0.0000     0.0000     0.0000     0.0000     0.0000     0.0000 </r>
        <r>     0.8453     0.0000     0.0000     0.0000     0.0000     0.0000     0.0000     0.0000     0.0000     0.0000 </r>
        <r>     0.8786     0.0000     0.0000     0.0000     0.0000     0.0000     0.0000     0.0000     0.0000     0.0000 </r>
        <r>     0.9120     0.0000     0.0000     0.0000     0.0000     0.0000     0.0000     0.0000     0.0000     0.0000 </r>
        <r>     0.9453     0.0000     0.0000     0.0000     0.0000     0.0000     0.0000     0.0000     0.0000     0.0000 </r>
        <r>     0.9786     0.0000     0.0000     0.0000     0.0000     0.0000     0.0000     0.0000     0.0000     0.0000 </r>
        <r>     1.0119     0.0000     0.0000     0.0000     0.0000     0.0000     0.0000     0.0000     0.0000     0.0000 </r>
        <r>     1.0452     0.0000     0.0000     0.0000     0.0000     0.0000     0.0000     0.0000     0.0000     0.0000 </r>
        <r>     1.0786     0.0000     0.0000     0.0000     0.0000     0.0000     0.0000     0.0000     0.0000     0.0000 </r>
        <r>     1.1119     0.0000     0.0000     0.0000     0.0000     0.0000     0.0000     0.0000     0.0000     0.0000 </r>
        <r>     1.1452     0.0000     0.0000     0.0000     0.0000     0.0000     0.0000     0.0000     0.0000     0.0000 </r>
        <r>     1.1785     0.0000     0.0000     0.0000     0.0000     0.0000     0.0000     0.0000     0.0000     0.0000 </r>
        <r>     1.2119     0.0000     0.0000     0.0000     0.0000     0.0000     0.0000     0.0000     0.0000     0.0000 </r>
        <r>     1.2452     0.0000     0.0000     0.0000     0.0000     0.0000     0.0000     0.0000     0.0000     0.0000 </r>
        <r>     1.2785     0.0001     0.0000     0.0000     0.0000     0.0000     0.0000     0.0000     0.0000     0.0000 </r>
        <r>     1.3118     0.0001     0.0000     0.0000     0.0000     0.0000     0.0000     0.0000     0.0000     0.0000 </r>
        <r>     1.3452     0.0001     0.0000     0.0000     0.0000     0.0000     0.0000     0.0000     0.0000     0.0000 </r>
        <r>     1.3785     0.0000     0.0000     0.0000     0.0000     0.0000     0.0000     0.0000     0.0000     0.0000 </r>
        <r>     1.4118     0.0000     0.0000     0.0000     0.0000     0.0000     0.0000     0.0000     0.0000     0.0000 </r>
        <r>     1.4451     0.0000     0.0000     0.0000     0.0000     0.0000     0.0000     0.0000     0.0000     0.0000 </r>
        <r>     1.4784     0.0000     0.0000     0.0000     0.0000     0.0000     0.0000     0.0000     0.0000     0.0000 </r>
        <r>     1.5118     0.0000     0.0000     0.0000     0.0000     0.0000     0.0000     0.0000     0.0000     0.0000 </r>
        <r>     1.5451     0.0000     0.0000     0.0000     0.0000     0.0000     0.0000     0.0000     0.0000     0.0000 </r>
        <r>     1.5784     0.0000     0.0000     0.0000     0.0000     0.0000     0.0000     0.0000     0.0000     0.0000 </r>
        <r>     1.6117     0.0000     0.0000     0.0000     0.0000     0.0000     0.0000     0.0000     0.0000     0.0000 </r>
        <r>     1.6451     0.0000     0.0000     0.0000     0.0000     0.0000     0.0000     0.0000     0.0000     0.0000 </r>
        <r>     1.6784     0.0000     0.0000     0.0000     0.0000     0.0000     0.0000     0.0000     0.0000     0.0000 </r>
        <r>     1.7117     0.0000     0.0000     0.0000     0.0000     0.0000     0.0000     0.0000     0.0000     0.0000 </r>
        <r>     1.7450     0.0000     0.0000     0.0000     0.0000     0.0000     0.0000     0.0000     0.0000     0.0000 </r>
        <r>     1.7784     0.0000     0.0000     0.0000     0.0000     0.0000     0.0000     0.0000     0.0000     0.0000 </r>
        <r>     1.8117     0.0000     0.0000     0.0000     0.0000     0.0000     0.0000     0.0000     0.0000     0.0000 </r>
       </set>
      </set>
     </set>
    </array>
   </partial>
  </dos>
  <projected>
   <eigenvalues>
    <array>
     <dimension dim="1">band</dimension>
     <dimension dim="2">kpoint</dimension>
     <dimension dim="3">spin</dimension>
     <field>eigene</field>
     <field>occ</field>
     <set>
      <set comment="spin 1">
       <set comment="kpoint 1">
        <r>   -7.6853    1.0000 </r>
        <r>   -7.4764    1.0000 </r>
        <r>   -0.1892    0.0000 </r>
        <r>    0.0217    0.0000 </r>
        <r>    0.0786    0.0000 </r>
        <r>    0.3910    0.0000 </r>
        <r>    0.3968    0.0000 </r>
        <r>    0.4271    0.0000 </r>
       </set>
      </set>
      <set comment="spin 2">
       <set comment="kpoint 1">
        <r>    0.0307    0.0000 </r>
        <r>    0.1615    0.0000 </r>
        <r>    0.2029    0.0000 </r>
        <r>    0.6052    0.0000 </r>
        <r>    0.6134    0.0000 </r>
        <r>    1.2217    0.0000 </r>
        <r>    1.2588    0.0000 </r>
        <r>    1.3117    0.0000 </r>
       </set>
      </set>
     </set>
    </array>
   </eigenvalues>
   <array>
    <dimension dim="1">ion</dimension>
    <dimension dim="2">band</dimension>
    <dimension dim="3">kpoint</dimension>
    <dimension dim="4">spin</dimension>
    <field>    s</field>
    <field>   py</field>
    <field>   pz</field>
    <field>   px</field>
    <field>  dxy</field>
    <field>  dyz</field>
    <field>  dz2</field>
    <field>  dxz</field>
    <field>x2-y2</field>
    <set>
     <set comment="spin1">
      <set comment="kpoint 1">
       <set comment="band 1">
        <r>  0.1851  0.0000  0.0000  0.0000  0.0000  0.0000  0.0000  0.0000  0.0000 </r>
        <r>  0.1851  0.0000  0.0000  0.0000  0.0000  0.0000  0.0000  0.0000  0.0000 </r>
       </set>
       <set comment="band 2">
        <r>  0.1947  0.0000  0.0000  0.0000  0.0000  0.0000  0.0000  0.0000  0.0000 </r>
        <r>  0.1947  0.0000  0.0000  0.0000  0.0000  0.0000  0.0000  0.0000  0.0000 </r>
       </set>
       <set comment="band 3">
        <r>  0.0071  0.0000  0.0000  0.0000  0.0000  0.0000  0.0000  0.0000  0.0000 </r>
        <r>  0.0071  0.0000  0.0000  0.0000  0.0000  0.0000  0.0000  0.0000  0.0000 </r>
       </set>
       <set comment="band 4">
        <r>  0.0024  0.0000  0.0001  0.0000  0.0000  0.0000  0.0000  0.0000  0.0000 </r>
        <r>  0.0024  0.0000  0.0001  0.0000  0.0000  0.0000  0.0000  0.0000  0.0000 </r>
       </set>
       <set comment="band 5">
        <r>  0.0010  0.0000  0.0000  0.0000  0.0000  0.0000  0.0000  0.0000  0.0000 </r>
        <r>  0.0009  0.0000  0.0000  0.0000  0.0000  0.0000  0.0000  0.0000  0.0000 </r>
       </set>
       <set comment="band 6">
        <r>  0.0000  0.0011  0.0000  0.0000  0.0000  0.0000  0.0000  0.0000  0.0000 </r>
        <r>  0.0000  0.0011  0.0000  0.0000  0.0000  0.0000  0.0000  0.0000  0.0000 </r>
       </set>
       <set comment="band 7">
        <r>  0.0004  0.0000  0.0001  0.0005  0.0000  0.0000  0.0000  0.0000  0.0000 </r>
        <r>  0.0004  0.0000  0.0001  0.0005  0.0000  0.0000  0.0000  0.0000  0.0000 </r>
       </set>
       <set comment="band 8">
        <r>  0.0020  0.0000  0.0003  0.0000  0.0000  0.0000  0.0000  0.0000  0.0000 </r>
        <r>  0.0013  0.0000  0.0003  0.0000  0.0000  0.0000  0.0000  0.0000  0.0000 </r>
       </set>
      </set>
     </set>
     <set comment="spin2">
      <set comment="kpoint 1">
       <set comment="band 1">
        <r>  0.0000  0.0000  0.0000  0.0000  0.0000  0.0000  0.0000  0.0000  0.0000 </r>
        <r>  0.0000  0.0000  0.0000  0.0000  0.0000  0.0000  0.0000  0.0000  0.0000 </r>
       </set>
       <set comment="band 2">
        <r>  0.0000  0.0000  0.0000  0.0000  0.0000  0.0000  0.0000  0.0000  0.0000 </r>
        <r>  0.0000  0.0000  0.0000  0.0000  0.0000  0.0000  0.0000  0.0000  0.0000 </r>
       </set>
       <set comment="band 3">
        <r>  0.0000  0.0000  0.0000  0.0000  0.0000  0.0000  0.0000  0.0000  0.0000 </r>
        <r>  0.0000  0.0000  0.0000  0.0000  0.0000  0.0000  0.0000  0.0000  0.0000 </r>
       </set>
       <set comment="band 4">
        <r>  0.0000  0.0000  0.0000  0.0000  0.0000  0.0000  0.0000  0.0000  0.0000 </r>
        <r>  0.0000  0.0000  0.0000  0.0000  0.0000  0.0000  0.0000  0.0000  0.0000 </r>
       </set>
       <set comment="band 5">
        <r>  0.0000  0.0000  0.0000  0.0000  0.0000  0.0000  0.0000  0.0000  0.0000 </r>
        <r>  0.0000  0.0000  0.0000  0.0000  0.0000  0.0000  0.0000  0.0000  0.0000 </r>
       </set>
       <set comment="band 6">
        <r>  0.0000  0.0000  0.0000  0.0000  0.0000  0.0000  0.0000  0.0000  0.0000 </r>
        <r>  0.0000  0.0000  0.0000  0.0000  0.0000  0.0000  0.0000  0.0000  0.0000 </r>
       </set>
       <set comment="band 7">
        <r>  0.0000  0.0000  0.0000  0.0000  0.0000  0.0000  0.0000  0.0000  0.0000 </r>
        <r>  0.0000  0.0000  0.0000  0.0000  0.0000  0.0000  0.0000  0.0000  0.0000 </r>
       </set>
       <set comment="band 8">
        <r>  0.0000  0.0000  0.0000  0.0000  0.0000  0.0000  0.0000  0.0000  0.0000 </r>
        <r>  0.0000  0.0000  0.0000  0.0000  0.0000  0.0000  0.0000  0.0000  0.0000 </r>
       </set>
      </set>
     </set>
    </set>
   </array>
  </projected>
 </calculation>
 <structure name="finalpos" >
  <crystal>
   <varray name="basis" >
    <v>      11.10380000       0.00000000       0.00000000 </v>
    <v>       0.00000000      11.20020000       0.00000000 </v>
    <v>       0.00000000       0.00000000      32.43460000 </v>
   </varray>
   <i name="volume">   4033.72191804 </i>
   <varray name="rec_basis" >
    <v>       0.09005926       0.00000000       0.00000000 </v>
    <v>       0.00000000       0.08928412       0.00000000 </v>
    <v>       0.00000000       0.00000000       0.03083127 </v>
   </varray>
  </crystal>
  <varray name="positions" >
   <v>       0.52770183       0.63308456       0.46169141 </v>
   <v>       0.43096817       0.63159544       0.56995859 </v>
  </varray>
 </structure>
</modeling>
