       N       E                     dE             d eps       ncg     rms          rms(c)
DAV:   1     0.118892923962E+05    0.11889E+05   -0.60623E+05  2394   0.100E+03
DAV:   2    -0.164658399106E+04   -0.13536E+05   -0.13066E+05  2972   0.277E+02
DAV:   3    -0.376121370426E+04   -0.21146E+04   -0.20955E+04  2516   0.114E+02
DAV:   4    -0.383564077572E+04   -0.74427E+02   -0.73924E+02  2604   0.253E+01
DAV:   5    -0.383824801963E+04   -0.26072E+01   -0.26023E+01  2820   0.400E+00    0.981E+01
DAV:   6    -0.359180889708E+04    0.24644E+03   -0.42954E+02  2380   0.185E+01    0.532E+01
DAV:   7    -0.353647317625E+04    0.55336E+02   -0.12404E+02  2556   0.109E+01    0.241E+01
DAV:   8    -0.353215519827E+04    0.43180E+01   -0.35355E+01  2516   0.623E+00    0.905E+00
DAV:   9    -0.353140447061E+04    0.75073E+00   -0.33050E+00  2580   0.248E+00    0.382E+00
DAV:  10    -0.353127992130E+04    0.12455E+00   -0.16810E+00  2476   0.135E+00    0.163E+00
DAV:  11    -0.353121943385E+04    0.60487E-01   -0.18507E-01  2516   0.607E-01    0.900E-01
DAV:  12    -0.353119152166E+04    0.27912E-01   -0.11381E-01  2468   0.384E-01    0.606E-01
DAV:  13    -0.353117179237E+04    0.19729E-01   -0.33021E-02  2484   0.205E-01    0.364E-01
DAV:  14    -0.353116901888E+04    0.27735E-02   -0.34291E-02  2468   0.196E-01    0.234E-01
DAV:  15    -0.353118424632E+04   -0.15227E-01   -0.12666E-02  2548   0.129E-01    0.152E-01
DAV:  16    -0.353120482564E+04   -0.20579E-01   -0.54148E-03  2500   0.774E-02    0.100E-01
DAV:  17    -0.353121815258E+04   -0.13327E-01   -0.13157E-03  2564   0.377E-02    0.690E-02
DAV:  18    -0.353123041938E+04   -0.12267E-01   -0.11327E-03  2436   0.322E-02    0.418E-02
DAV:  19    -0.353123684517E+04   -0.64258E-02   -0.29992E-04  2612   0.174E-02    0.302E-02
DAV:  20    -0.353124203462E+04   -0.51895E-02   -0.19117E-04  2332   0.128E-02    0.224E-02
DAV:  21    -0.353124638119E+04   -0.43466E-02   -0.13710E-04  2284   0.113E-02    0.129E-02
DAV:  22    -0.353124817027E+04   -0.17891E-02   -0.44764E-05  2196   0.634E-03    0.104E-02
DAV:  23    -0.353124922576E+04   -0.10555E-02   -0.23408E-05  1844   0.485E-03    0.526E-03
DAV:  24    -0.353124999357E+04   -0.76781E-03   -0.18963E-05  1780   0.324E-03    0.395E-03
DAV:  25    -0.353125023324E+04   -0.23967E-03   -0.40779E-06  1676   0.170E-03    0.223E-03
DAV:  26    -0.353125035799E+04   -0.12475E-03   -0.35190E-06  1660   0.162E-03    0.138E-03
DAV:  27    -0.353125040154E+04   -0.43552E-04   -0.13398E-06  1652   0.918E-04    0.106E-03
DAV:  28    -0.353125041293E+04   -0.11381E-04   -0.55994E-07  1644   0.597E-04    0.494E-04
DAV:  29    -0.353125041987E+04   -0.69454E-05   -0.32578E-07  1604   0.445E-04
   1 F= -.35717895E+04 E0= -.35717879E+04  d E =-.357179E+04
       N       E                     dE             d eps       ncg     rms          rms(c)
DAV:   1    -0.352133442518E+04    0.99160E+01   -0.42458E+02  2202   0.190E+01    0.108E+01
DAV:   2    -0.352141529362E+04   -0.80868E-01   -0.17262E+01  2564   0.362E+00    0.572E+00
DAV:   3    -0.352097401734E+04    0.44128E+00   -0.31310E+00  2564   0.142E+00    0.304E+00
DAV:   4    -0.352089297372E+04    0.81044E-01   -0.56651E-01  2556   0.623E-01    0.149E+00
DAV:   5    -0.352087950196E+04    0.13472E-01   -0.90254E-02  2348   0.276E-01    0.588E-01
DAV:   6    -0.352087847311E+04    0.10288E-02   -0.19748E-02  2524   0.122E-01    0.211E-01
DAV:   7    -0.352087866401E+04   -0.19090E-03   -0.35926E-03  2700   0.582E-02    0.752E-02
DAV:   8    -0.352087872950E+04   -0.65484E-04   -0.72747E-04  2540   0.251E-02    0.389E-02
DAV:   9    -0.352087877596E+04   -0.46467E-04   -0.86235E-05  2476   0.104E-02    0.213E-02
DAV:  10    -0.352087883975E+04   -0.63789E-04   -0.37744E-05  1988   0.766E-03    0.656E-03
DAV:  11    -0.352087886327E+04   -0.23518E-04   -0.86676E-06  1676   0.388E-03    0.434E-03
DAV:  12    -0.352087889213E+04   -0.28854E-04   -0.36498E-06  1628   0.290E-03    0.252E-03
DAV:  13    -0.352087891819E+04   -0.26064E-04   -0.31673E-06  1628   0.250E-03    0.191E-03
DAV:  14    -0.352087893389E+04   -0.15700E-04   -0.19145E-06  1620   0.164E-03    0.136E-03
DAV:  15    -0.352087894363E+04   -0.97375E-05   -0.87255E-07  1604   0.908E-04
   2 F= -.35614130E+04 E0= -.35614105E+04  d E =0.103765E+02
       N       E                     dE             d eps       ncg     rms          rms(c)
DAV:   1    -0.353218471772E+04   -0.11306E+02   -0.31392E+02  2274   0.164E+01    0.805E+00
DAV:   2    -0.353177005983E+04    0.41466E+00   -0.10140E+01  2668   0.297E+00    0.476E+00
DAV:   3    -0.353147261906E+04    0.29744E+00   -0.22050E+00  2500   0.110E+00    0.316E+00
DAV:   4    -0.353145234154E+04    0.20278E-01   -0.31186E-01  2516   0.405E-01    0.218E+00
DAV:   5    -0.353142832859E+04    0.24013E-01   -0.52149E-02  2420   0.250E-01    0.502E-01
DAV:   6    -0.353142630819E+04    0.20204E-02   -0.30167E-02  2732   0.141E-01    0.299E-01
DAV:   7    -0.353142631945E+04   -0.11262E-04   -0.37111E-03  2460   0.539E-02    0.213E-01
DAV:   8    -0.353142621840E+04    0.10105E-03   -0.55930E-04  2508   0.205E-02    0.915E-02
DAV:   9    -0.353142622163E+04   -0.32294E-05   -0.24855E-04  2428   0.172E-02    0.492E-02
DAV:  10    -0.353142624925E+04   -0.27616E-04   -0.76162E-05  2612   0.105E-02    0.226E-02
DAV:  11    -0.353142626704E+04   -0.17790E-04   -0.20024E-05  1884   0.464E-03    0.942E-03
DAV:  12    -0.353142629380E+04   -0.26764E-04   -0.34943E-06  1612   0.324E-03    0.410E-03
DAV:  13    -0.353142631822E+04   -0.24418E-04   -0.37086E-06  1636   0.315E-03    0.226E-03
DAV:  14    -0.353142632977E+04   -0.11553E-04   -0.26788E-06  1612   0.195E-03    0.171E-03
DAV:  15    -0.353142633939E+04   -0.96196E-05   -0.91433E-07  1596   0.119E-03
   3 F= -.35719657E+04 E0= -.35719640E+04  d E =-.176180E+00
       N       E                     dE             d eps       ncg     rms          rms(c)
DAV:   1    -0.353142967534E+04   -0.33456E-02   -0.15450E-01  2212   0.368E-01    0.140E-01
DAV:   2    -0.353142975464E+04   -0.79302E-04   -0.54549E-03  2636   0.621E-02    0.925E-02
DAV:   3    -0.353142962676E+04    0.12788E-03   -0.65486E-04  2556   0.214E-02    0.550E-02
DAV:   4    -0.353142960653E+04    0.20229E-04   -0.18806E-04  2500   0.113E-02    0.280E-02
DAV:   5    -0.353142960916E+04   -0.26298E-05   -0.36731E-05  1884   0.580E-03
   4 F= -.35719690E+04 E0= -.35719673E+04  d E =-.179446E+00
       N       E                     dE             d eps       ncg     rms          rms(c)
DAV:   1    -0.353087705589E+04    0.55255E+00   -0.63787E+01  2162   0.793E+00    0.237E+00
DAV:   2    -0.353096229516E+04   -0.85239E-01   -0.18724E+00  2548   0.121E+00    0.151E+00
DAV:   3    -0.353092684407E+04    0.35451E-01   -0.16101E-01  2540   0.372E-01    0.923E-01
DAV:   4    -0.353092010706E+04    0.67370E-02   -0.39893E-02  2436   0.185E-01    0.464E-01
DAV:   5    -0.353091988358E+04    0.22348E-03   -0.83545E-03  2476   0.925E-02    0.109E-01
DAV:   6    -0.353091984636E+04    0.37217E-04   -0.17535E-03  2596   0.437E-02    0.782E-02
DAV:   7    -0.353091986050E+04   -0.14139E-04   -0.25780E-04  2412   0.166E-02    0.315E-02
DAV:   8    -0.353091986822E+04   -0.77221E-05   -0.54013E-05  2404   0.920E-03
   5 F= -.35714530E+04 E0= -.35714508E+04  d E =0.515976E+00
