 vasp.6.4.2 20Jul23 (build Aug  7 2024 10:52:41) complex                         
 executed on              LinuxNV date 2024.09.05  20:54:49
 running    1 mpi-ranks, with    1 threads/rank, on    1 nodes
 distrk:  each k-point on    1 cores,    1 groups
 distr:  one band on NCORE=   1 cores,    1 groups
 OpenACC runtime initialized ...    1 GPUs detected


--------------------------------------------------------------------------------------------------------


 INCAR:
   ENCUT = 400.000000
   SIGMA = 0.100000
   EDIFF = 1.00e-05
   EDIFFG = -2.00e-02
   GGA = PE
   IBRION = 2
   ISMEAR = 0
   NSW = 100
   IVDW = 12
   LCHARG = .FALSE.
   LWAVE = .FALSE.
   LREAL = Auto

 POTCAR:    PAW_PBE H 15Jun2001                   
 POTCAR:    PAW_PBE C 08Apr2002                   
 POTCAR:    PAW_PBE N 08Apr2002                   
 POTCAR:    PAW_PBE O 08Apr2002                   
 POTCAR:    PAW_PBE Mg 13Apr2007                  
 POTCAR:    PAW_PBE H 15Jun2001                   
   SHA256 =  030f79b5d3ab3cf0e668861823c8fb652ff669f3e15e46930bd03bfd63a607b6 H/POTCAR              
   COPYR  = (c) Copyright 15Jun2001 Georg Kresse                                                    
   COPYR  = This file is part of the software VASP. Any use, copying, and all other rights are regul
   COPYR  = If you do not have a valid VASP license, you may not use, copy or distribute this file. 
   VRHFIN =H: ultrasoft test                                                                        
   LEXCH  = PE                                                                                      
   EATOM  =    12.4884 eV,    0.9179 Ry                                                             
                                                                                                    
   TITEL  = PAW_PBE H 15Jun2001                                                                     
   LULTRA =        F    use ultrasoft PP ?                                                          
   IUNSCR =        0    unscreen: 0-lin 1-nonlin 2-no                                               
   RPACOR =    0.000    partial core radius                                                         
   POMASS =    1.000; ZVAL   =    1.000    mass and valenz                                          
   RCORE  =    1.100    outmost cutoff radius                                                       
   RWIGS  =    0.700; RWIGS  =    0.370    wigner-seitz radius (au A)                               
   ENMAX  =  250.000; ENMIN  =  200.000 eV                                                          
   RCLOC  =    0.701    cutoff for local pot                                                        
   LCOR   =        T    correct aug charges                                                         
   LPAW   =        T    paw PP                                                                      
   EAUG   =  400.000                                                                                
   RMAX   =    1.123    core radius for proj-oper                                                   
   RAUG   =    1.200    factor for augmentation sphere                                              
   RDEP   =    1.112    radius for radial grids                                                     
   RDEPT  =    0.926    core radius for aug-charge                                                  
                                                                                                    
   Atomic configuration                                                                             
    2 entries                                                                                       
     n  l   j            E        occ.                                                              
     1  0  0.50        -6.4927   1.0000                                                             
     2  1  0.50        -3.4015   0.0000                                                             
   Description                                                                                      
     l       E           TYP  RCUT    TYP  RCUT                                                     
     0     -6.4927494     23  1.100                                                                 
     0      6.8029130     23  1.100                                                                 
     1     -4.0817478     23  1.100                                                                 
  local pseudopotential read in
  atomic valenz-charges read in
  non local Contribution for L=            0  read in
    real space projection operators read in
  non local Contribution for L=            0  read in
    real space projection operators read in
  non local Contribution for L=            1  read in
    real space projection operators read in
    PAW grid and wavefunctions read in
 
   number of l-projection  operators is LMAX  =            3
   number of lm-projection operators is LMMAX =            5
 
 POTCAR:    PAW_PBE C 08Apr2002                   
   SHA256 =  253f7b50bb8d59471dbedb8285d89021f4a42ed1a2c5d38a03a736e69125dd95 C/POTCAR              
   COPYR  = (c) Copyright 08Apr2002 Georg Kresse                                                    
   COPYR  = This file is part of the software VASP. Any use, copying, and all other rights are regul
   COPYR  = If you do not have a valid VASP license, you may not use, copy or distribute this file. 
   VRHFIN =C: s2p2                                                                                  
   LEXCH  = PE                                                                                      
   EATOM  =   147.1560 eV,   10.8157 Ry                                                             
                                                                                                    
   TITEL  = PAW_PBE C 08Apr2002                                                                     
   LULTRA =        F    use ultrasoft PP ?                                                          
   IUNSCR =        1    unscreen: 0-lin 1-nonlin 2-no                                               
   RPACOR =    1.200    partial core radius                                                         
   POMASS =   12.011; ZVAL   =    4.000    mass and valenz                                          
   RCORE  =    1.500    outmost cutoff radius                                                       
   RWIGS  =    1.630; RWIGS  =    0.863    wigner-seitz radius (au A)                               
   ENMAX  =  400.000; ENMIN  =  300.000 eV                                                          
   ICORE  =        2    local potential                                                             
   LCOR   =        T    correct aug charges                                                         
   LPAW   =        T    paw PP                                                                      
   EAUG   =  644.873                                                                                
   DEXC   =    0.000                                                                                
   RMAX   =    1.529    core radius for proj-oper                                                   
   RAUG   =    1.300    factor for augmentation sphere                                              
   RDEP   =    1.501    radius for radial grids                                                     
   RDEPT  =    1.300    core radius for aug-charge                                                  
                                                                                                    
   Atomic configuration                                                                             
    4 entries                                                                                       
     n  l   j            E        occ.                                                              
     1  0  0.50      -273.3789   2.0000                                                             
     2  0  0.50       -13.7508   2.0000                                                             
     2  1  0.50        -5.2854   2.0000                                                             
     3  2  1.50        -5.4423   0.0000                                                             
   Description                                                                                      
     l       E           TYP  RCUT    TYP  RCUT                                                     
     0    -13.7508458     23  1.200                                                                 
     0     -8.2022199     23  1.200                                                                 
     1     -5.2854383     23  1.500                                                                 
     1     34.0145650     23  1.500                                                                 
     2     -5.4423304      7  1.500                                                                 
  local pseudopotential read in
  partial core-charges read in
  partial kinetic energy density read in
  atomic valenz-charges read in
  non local Contribution for L=            0  read in
    real space projection operators read in
  non local Contribution for L=            0  read in
    real space projection operators read in
  non local Contribution for L=            1  read in
    real space projection operators read in
  non local Contribution for L=            1  read in
    real space projection operators read in
    PAW grid and wavefunctions read in
 
   number of l-projection  operators is LMAX  =            4
   number of lm-projection operators is LMMAX =            8
 
 POTCAR:    PAW_PBE N 08Apr2002                   
   SHA256 =  e053789ff3a61a86a1b75d8a110fcc91f86041011e7b0817c7c99e4e8a6349d7 N/POTCAR              
   COPYR  = (c) Copyright 08Apr2002 Georg Kresse                                                    
   COPYR  = This file is part of the software VASP. Any use, copying, and all other rights are regul
   COPYR  = If you do not have a valid VASP license, you may not use, copy or distribute this file. 
   VRHFIN =N: s2p3                                                                                  
   LEXCH  = PE                                                                                      
   EATOM  =   264.5486 eV,   19.4438 Ry                                                             
                                                                                                    
   TITEL  = PAW_PBE N 08Apr2002                                                                     
   LULTRA =        F    use ultrasoft PP ?                                                          
   IUNSCR =        1    unscreen: 0-lin 1-nonlin 2-no                                               
   RPACOR =    1.200    partial core radius                                                         
   POMASS =   14.001; ZVAL   =    5.000    mass and valenz                                          
   RCORE  =    1.500    outmost cutoff radius                                                       
   RWIGS  =    1.400; RWIGS  =    0.741    wigner-seitz radius (au A)                               
   ENMAX  =  400.000; ENMIN  =  300.000 eV                                                          
   ICORE  =        2    local potential                                                             
   LCOR   =        T    correct aug charges                                                         
   LPAW   =        T    paw PP                                                                      
   EAUG   =  627.112                                                                                
   DEXC   =    0.000                                                                                
   RMAX   =    1.529    core radius for proj-oper                                                   
   RAUG   =    1.300    factor for augmentation sphere                                              
   RDEP   =    1.514    radius for radial grids                                                     
   RDEPT  =    1.338    core radius for aug-charge                                                  
                                                                                                    
   Atomic configuration                                                                             
    4 entries                                                                                       
     n  l   j            E        occ.                                                              
     1  0  0.50      -384.7179   2.0000                                                             
     2  0  0.50       -18.5828   2.0000                                                             
     2  1  0.50        -7.0898   3.0000                                                             
     3  2  1.50        -6.8029   0.0000                                                             
   Description                                                                                      
     l       E           TYP  RCUT    TYP  RCUT                                                     
     0    -18.5828119     23  1.200                                                                 
     0    -13.5018863     23  1.200                                                                 
     1     -7.0897853     23  1.500                                                                 
     1      9.5240782     23  1.500                                                                 
     2     -6.8029130      7  1.500                                                                 
  local pseudopotential read in
  partial core-charges read in
  partial kinetic energy density read in
  atomic valenz-charges read in
  non local Contribution for L=            0  read in
    real space projection operators read in
  non local Contribution for L=            0  read in
    real space projection operators read in
  non local Contribution for L=            1  read in
    real space projection operators read in
  non local Contribution for L=            1  read in
    real space projection operators read in
    PAW grid and wavefunctions read in
 
   number of l-projection  operators is LMAX  =            4
   number of lm-projection operators is LMMAX =            8
 
 POTCAR:    PAW_PBE O 08Apr2002                   
   SHA256 =  818f92134a0a090dccd8ba1447fa70422a3b330e708bb4f08108d8ae51209ddf O/POTCAR              
   COPYR  = (c) Copyright 08Apr2002 Georg Kresse                                                    
   COPYR  = This file is part of the software VASP. Any use, copying, and all other rights are regul
   COPYR  = If you do not have a valid VASP license, you may not use, copy or distribute this file. 
   VRHFIN =O: s2p4                                                                                  
   LEXCH  = PE                                                                                      
   EATOM  =   432.3788 eV,   31.7789 Ry                                                             
                                                                                                    
   TITEL  = PAW_PBE O 08Apr2002                                                                     
   LULTRA =        F    use ultrasoft PP ?                                                          
   IUNSCR =        1    unscreen: 0-lin 1-nonlin 2-no                                               
   RPACOR =    1.200    partial core radius                                                         
   POMASS =   16.000; ZVAL   =    6.000    mass and valenz                                          
   RCORE  =    1.520    outmost cutoff radius                                                       
   RWIGS  =    1.550; RWIGS  =    0.820    wigner-seitz radius (au A)                               
   ENMAX  =  400.000; ENMIN  =  300.000 eV                                                          
   ICORE  =        2    local potential                                                             
   LCOR   =        T    correct aug charges                                                         
   LPAW   =        T    paw PP                                                                      
   EAUG   =  605.392                                                                                
   DEXC   =    0.000                                                                                
   RMAX   =    1.553    core radius for proj-oper                                                   
   RAUG   =    1.300    factor for augmentation sphere                                              
   RDEP   =    1.550    radius for radial grids                                                     
   RDEPT  =    1.329    core radius for aug-charge                                                  
                                                                                                    
   Atomic configuration                                                                             
    4 entries                                                                                       
     n  l   j            E        occ.                                                              
     1  0  0.50      -514.6923   2.0000                                                             
     2  0  0.50       -23.9615   2.0000                                                             
     2  1  0.50        -9.0305   4.0000                                                             
     3  2  1.50        -9.5241   0.0000                                                             
   Description                                                                                      
     l       E           TYP  RCUT    TYP  RCUT                                                     
     0    -23.9615318     23  1.200                                                                 
     0     -9.5240782     23  1.200                                                                 
     1     -9.0304911     23  1.520                                                                 
     1      8.1634956     23  1.520                                                                 
     2     -9.5240782      7  1.500                                                                 
  local pseudopotential read in
  partial core-charges read in
  partial kinetic energy density read in
  kinetic energy density of atom read in
  atomic valenz-charges read in
  non local Contribution for L=            0  read in
    real space projection operators read in
  non local Contribution for L=            0  read in
    real space projection operators read in
  non local Contribution for L=            1  read in
    real space projection operators read in
  non local Contribution for L=            1  read in
    real space projection operators read in
    PAW grid and wavefunctions read in
 
   number of l-projection  operators is LMAX  =            4
   number of lm-projection operators is LMMAX =            8
 
 POTCAR:    PAW_PBE Mg 13Apr2007                  
   SHA256 =  a90315392b5cf46bd986ff2010bfd53a40dec98e36f8d1f6277412e9d0e81a9f Mg/POTCAR             
   COPYR  = (c) Copyright 13Apr2007 Georg Kresse                                                    
   COPYR  = This file is part of the software VASP. Any use, copying, and all other rights are regul
   COPYR  = If you do not have a valid VASP license, you may not use, copy or distribute this file. 
   VRHFIN =Mg: s2p0                                                                                 
   LEXCH  = PE                                                                                      
   EATOM  =    23.0369 eV,    1.6932 Ry                                                             
                                                                                                    
   TITEL  = PAW_PBE Mg 13Apr2007                                                                    
   LULTRA =        F    use ultrasoft PP ?                                                          
   IUNSCR =        1    unscreen: 0-lin 1-nonlin 2-no                                               
   RPACOR =    1.500    partial core radius                                                         
   POMASS =   24.305; ZVAL   =    2.000    mass and valenz                                          
   RCORE  =    2.000    outmost cutoff radius                                                       
   RWIGS  =    2.880; RWIGS  =    1.524    wigner-seitz radius (au A)                               
   ENMAX  =  200.000; ENMIN  =  100.000 eV                                                          
   RCLOC  =    1.506    cutoff for local pot                                                        
   LCOR   =        T    correct aug charges                                                         
   LPAW   =        T    paw PP                                                                      
   EAUG   =  454.734                                                                                
   DEXC   =    0.000                                                                                
   RMAX   =    2.045    core radius for proj-oper                                                   
   RAUG   =    1.300    factor for augmentation sphere                                              
   RDEP   =    2.025    radius for radial grids                                                     
   RDEPT  =    1.942    core radius for aug-charge                                                  
                                                                                                    
   Atomic configuration                                                                             
    6 entries                                                                                       
     n  l   j            E        occ.                                                              
     1  0  0.50     -1259.6230   2.0000                                                             
     2  0  0.50       -79.8442   2.0000                                                             
     2  1  1.50       -46.6121   6.0000                                                             
     3  0  0.50        -4.7055   2.0000                                                             
     3  1  0.50        -1.3660   0.0000                                                             
     3  2  1.50        -1.3606   0.0000                                                             
   Description                                                                                      
     l       E           TYP  RCUT    TYP  RCUT                                                     
     0     -4.7054661     23  2.000                                                                 
     0     27.2116520     23  2.000                                                                 
     1      1.3605826     23  2.000                                                                 
     1     27.2116520     23  2.000                                                                 
     2     -1.3605826     23  2.000                                                                 
  local pseudopotential read in
  partial core-charges read in
  partial kinetic energy density read in
  atomic valenz-charges read in
  non local Contribution for L=            0  read in
    real space projection operators read in
  non local Contribution for L=            0  read in
    real space projection operators read in
  non local Contribution for L=            1  read in
    real space projection operators read in
  non local Contribution for L=            1  read in
    real space projection operators read in
  non local Contribution for L=            2  read in
    real space projection operators read in
    PAW grid and wavefunctions read in
 
   number of l-projection  operators is LMAX  =            5
   number of lm-projection operators is LMMAX =           13
 
 Optimization of the real space projectors (new method)

 maximal supplied QI-value         = 34.20
 optimisation between [QCUT,QGAM] = [  9.92, 20.18] = [ 27.55,114.04] Ry 
 Optimized for a Real-space Cutoff    1.26 Angstroem

   l    n(q)    QCUT    max X(q) W(low)/X(q) W(high)/X(q)  e(spline) 
   0      8     9.919    19.460    0.50E-03    0.23E-03    0.29E-06
   0      8     9.919    12.209    0.48E-03    0.23E-03    0.28E-06
   1      7     9.919     4.655    0.17E-03    0.75E-03    0.30E-06
 Optimization of the real space projectors (new method)

 maximal supplied QI-value         = 25.13
 optimisation between [QCUT,QGAM] = [ 10.05, 20.36] = [ 28.30,116.06] Ry 
 Optimized for a Real-space Cutoff    1.30 Angstroem

   l    n(q)    QCUT    max X(q) W(low)/X(q) W(high)/X(q)  e(spline) 
   0      8    10.053   115.676    0.49E-03    0.72E-03    0.18E-06
   0      8    10.053    87.132    0.49E-03    0.71E-03    0.18E-06
   1      7    10.053     4.429    0.32E-03    0.31E-03    0.18E-06
   1      7    10.053     2.733    0.23E-03    0.19E-03    0.20E-06
 Optimization of the real space projectors (new method)

 maximal supplied QI-value         = 25.13
 optimisation between [QCUT,QGAM] = [ 10.05, 20.36] = [ 28.30,116.06] Ry 
 Optimized for a Real-space Cutoff    1.65 Angstroem

   l    n(q)    QCUT    max X(q) W(low)/X(q) W(high)/X(q)  e(spline) 
   0     10    10.053    79.467    0.76E-04    0.72E-04    0.56E-06
   0     10    10.053    66.151    0.76E-04    0.72E-04    0.55E-06
   1     10    10.053     8.350    0.25E-03    0.92E-03    0.41E-05
   1     10    10.053     5.531    0.27E-03    0.10E-02    0.45E-05
 Optimization of the real space projectors (new method)

 maximal supplied QI-value         = 24.76
 optimisation between [QCUT,QGAM] = [ 10.15, 20.30] = [ 28.85,115.39] Ry 
 Optimized for a Real-space Cutoff    1.38 Angstroem

   l    n(q)    QCUT    max X(q) W(low)/X(q) W(high)/X(q)  e(spline) 
   0      8    10.150    20.381    0.22E-03    0.32E-03    0.29E-06
   0      8    10.150    15.268    0.23E-03    0.35E-03    0.30E-06
   1      8    10.150     5.964    0.46E-03    0.53E-03    0.21E-06
   1      8    10.150     5.382    0.38E-03    0.45E-03    0.19E-06
 Optimization of the real space projectors (new method)

 maximal supplied QI-value         = 18.90
 optimisation between [QCUT,QGAM] = [ 10.20, 20.41] = [ 29.16,116.64] Ry 
 Optimized for a Real-space Cutoff    1.30 Angstroem

   l    n(q)    QCUT    max X(q) W(low)/X(q) W(high)/X(q)  e(spline) 
   0      8    10.205    28.265    0.22E-03    0.17E-03    0.53E-07
   0      8    10.205    10.429    0.17E-03    0.15E-03    0.43E-07
   1      7    10.205    13.073    0.71E-04    0.41E-03    0.76E-07
   1      7    10.205     9.625    0.71E-04    0.33E-03    0.63E-07
   2      7    10.205     4.652    0.24E-03    0.41E-03    0.55E-07
  PAW_PBE H 15Jun2001                   :
 energy of atom  1       EATOM=  -12.4884
 kinetic energy error for atom=    0.0098 (will be added to EATOM!!)
  PAW_PBE C 08Apr2002                   :
 energy of atom  2       EATOM= -147.1560
 kinetic energy error for atom=    0.0288 (will be added to EATOM!!)
  PAW_PBE N 08Apr2002                   :
 energy of atom  3       EATOM= -264.5486
 kinetic energy error for atom=    0.0736 (will be added to EATOM!!)
  PAW_PBE O 08Apr2002                   :
 energy of atom  4       EATOM= -432.3788
 kinetic energy error for atom=    0.1156 (will be added to EATOM!!)
  PAW_PBE Mg 13Apr2007                  :
 energy of atom  5       EATOM=  -23.0369
 kinetic energy error for atom=    0.0001 (will be added to EATOM!!)
 
 
 POSCAR: H  C  N  O  Mg
  positions in cartesian coordinates
  No initial velocities read in
 exchange correlation table for  LEXCH =        8
   RHO(1)=    0.500       N(1)  =     2000
   RHO(2)=  100.500       N(2)  =     4000
 


--------------------------------------------------------------------------------------------------------


 ion  position               nearest neighbor table
   1  0.583  0.525  0.081- 137 1.09
   2  0.432  0.528  0.441- 138 1.09
   3  0.073  0.027  0.067- 139 1.09
   4  0.924  0.022  0.450- 140 1.09
   5  0.432  0.462  0.459- 141 1.09
   6  0.582  0.459  0.090- 142 1.09
   7  0.927  0.957  0.455- 143 1.08
   8  0.073  0.961  0.050- 144 1.09
   9  0.655  0.664  0.188- 145 1.09
  10  0.350  0.657  0.338- 146 1.09
  11  0.158  0.152  0.179- 147 1.10
  12  0.846  0.155  0.315- 148 1.09
  13  0.345  0.340  0.315- 149 1.09
  14  0.664  0.335  0.184- 150 1.09
  15  0.842  0.843  0.318- 151 1.09
  16  0.175  0.857  0.205- 152 1.09
  17  0.652  0.781  0.185- 169 1.09
  18  0.358  0.774  0.337- 170 1.09
  19  0.159  0.270  0.153- 171 1.09
  20  0.843  0.273  0.375- 172 1.09
  21  0.342  0.221  0.315- 173 1.09
  22  0.665  0.219  0.134- 174 1.09
  23  0.834  0.725  0.316- 175 1.09
  24  0.172  0.733  0.228- 176 1.09
  25  0.706  0.802  0.270- 177 1.09
  26  0.306  0.798  0.242- 178 1.09
  27  0.213  0.293  0.238- 179 1.09
  28  0.790  0.294  0.273- 180 1.09
  29  0.288  0.200  0.218- 181 1.09
  30  0.717  0.198  0.244- 182 1.09
  31  0.780  0.708  0.212- 183 1.09
  32  0.226  0.709  0.284- 184 1.09
  33  0.697  0.681  0.018- 193 1.10
  34  0.307  0.676  0.477- 194 1.10
  35  0.203  0.166  0.052- 195 1.10
  36  0.801  0.168  0.439- 196 1.10
  37  0.298  0.324  0.436- 197 1.10
  38  0.710  0.322  0.043- 198 1.09
  39  0.794  0.831  0.444- 199 1.10
  40  0.218  0.834  0.090- 200 1.10
  41  0.499  0.611  0.129- 209 1.08
  42  0.003  0.114  0.346- 210 1.08
  43  0.504  0.369  0.252- 211 1.09
  44  0.006  0.867  0.268- 212 1.09
  45  0.572  0.532  0.569- 233 1.09
  46  0.421  0.535  0.921- 234 1.09
  47  0.079  0.040  0.585- 235 1.09
  48  0.930  0.037  0.958- 236 1.08
  49  0.421  0.470  0.931- 237 1.09
  50  0.571  0.466  0.558- 238 1.09
  51  0.932  0.971  0.965- 239 1.09
  52  0.080  0.975  0.592- 240 1.09
  53  0.655  0.665  0.698- 241 1.09
  54  0.340  0.658  0.807- 242 1.10
  55  0.155  0.172  0.675- 243 1.10
  56  0.839  0.158  0.789- 244 1.09
  57  0.338  0.341  0.783- 245 1.09
  58  0.656  0.344  0.668- 246 1.09
  59  0.840  0.853  0.749- 247 1.09
  60  0.159  0.840  0.627- 248 1.09
  61  0.650  0.780  0.674- 265 1.09
  62  0.333  0.773  0.799- 266 1.09
  63  0.156  0.286  0.663- 267 1.09
  64  0.838  0.275  0.851- 268 1.09
  65  0.335  0.226  0.814- 269 1.09
  66  0.659  0.226  0.611- 270 1.09
  67  0.834  0.738  0.821- 271 1.09
  68  0.147  0.724  0.785- 272 1.09
  69  0.703  0.805  0.759- 273 1.09
  70  0.278  0.789  0.716- 274 1.09
  71  0.210  0.305  0.768- 275 1.09
  72  0.786  0.297  0.749- 276 1.09
  73  0.281  0.208  0.715- 277 1.09
  74  0.711  0.204  0.714- 278 1.09
  75  0.781  0.715  0.738- 279 1.09
  76  0.201  0.702  0.858- 280 1.09
  77  0.699  0.680  0.541- 289 1.10
  78  0.294  0.671  0.967- 290 1.09
  79  0.198  0.184  0.505- 291 1.10
  80  0.793  0.171  0.916- 292 1.09
  81  0.295  0.330  0.958- 293 1.09
  82  0.703  0.331  0.559- 294 1.10
  83  0.792  0.843  0.893- 295 1.09
  84  0.195  0.810  0.510- 296 1.09
  85  0.502  0.623  0.824- 305 1.08
  86  0.996  0.128  0.699- 306 1.09
  87  0.495  0.377  0.735- 307 1.08
  88  0.009  0.881  0.763- 308 1.11
  89  0.533  0.634  0.997- 313 1.09
  90  0.574  0.681  0.986- 318 1.09
  91  0.367  0.601  0.294- 319 1.09
  92  0.410  0.556  0.236- 324 1.09
  93  0.095  0.056  0.287- 325 1.09
  94  0.139  0.099  0.223- 330 1.09
  95  0.970  0.134  0.505- 331 1.09
  96  0.926  0.178  0.534- 336 1.09
  97  0.423  0.315  0.538- 337 1.09
  98  0.470  0.356  0.506- 342 1.09
  99  0.638  0.381  0.300- 343 1.09
 100  0.591  0.419  0.355- 348 1.09
 101  0.967  0.851  0.518- 349 1.09
 102  0.919  0.812  0.535- 354 1.09
 103  0.139  0.904  0.345- 355 1.09
 104  0.087  0.936  0.346- 360 1.09
 105  0.591  0.568  0.831- 361 1.09
 106  0.634  0.615  0.801- 366 1.09
 107  0.366  0.611  0.713- 367 1.09
 108  0.412  0.570  0.688- 372 1.09
 109  0.087  0.079  0.803- 373 1.09
 110  0.132  0.122  0.766- 378 1.09
 111  0.863  0.107  0.699- 379 1.09
 112  0.910  0.066  0.672- 384 1.09
 113  0.410  0.433  0.671- 385 1.09
 114  0.364  0.392  0.684- 390 1.09
 115  0.585  0.433  0.791- 391 1.09
 116  0.632  0.393  0.752- 396 1.09
 117  0.869  0.906  0.672- 397 1.09
 118  0.917  0.944  0.679- 402 1.09
 119  0.075  0.822  0.468- 403 1.09
 120  0.032  0.868  0.520- 408 1.09
 121  0.532  0.569  0.164- 209 1.39 129 1.43 314 1.48
 122  0.475  0.568  0.252- 209 1.39 130 1.42 323 1.46
 123  0.030  0.068  0.255- 210 1.39 131 1.41 326 1.46
 124  0.973  0.068  0.343- 210 1.39 132 1.43 332 1.48
 125  0.477  0.417  0.314- 211 1.40 133 1.42 341 1.49
 126  0.534  0.416  0.208- 211 1.39 134 1.42 347 1.48
 127  0.976  0.914  0.329- 212 1.40 135 1.42 350 1.48
 128  0.032  0.916  0.222- 212 1.40 136 1.42 359 1.48
 129  0.534  0.531  0.184- 137 1.42 121 1.43 213 1.44
 130  0.477  0.531  0.296- 122 1.42 138 1.42 213 1.43
 131  0.029  0.031  0.225- 123 1.41 139 1.42 214 1.43
 132  0.973  0.030  0.340- 140 1.42 124 1.43 214 1.44
 133  0.478  0.455  0.321- 125 1.42 141 1.42 215 1.43
 134  0.534  0.454  0.202- 126 1.42 142 1.43 215 1.43
 135  0.975  0.952  0.340- 127 1.42 216 1.42 143 1.43
 136  0.030  0.954  0.213- 128 1.42 144 1.42 216 1.43
 137  0.561  0.511  0.131-   1 1.09 142 1.37 129 1.42
 138  0.452  0.513  0.384-   2 1.09 141 1.36 130 1.42
 139  0.054  0.012  0.135-   3 1.09 144 1.36 131 1.42
 140  0.946  0.009  0.402-   4 1.09 143 1.37 132 1.42
 141  0.452  0.476  0.395-   5 1.09 138 1.36 133 1.42
 142  0.561  0.474  0.137-   6 1.09 137 1.37 134 1.43
 143  0.948  0.972  0.405-   7 1.08 140 1.37 135 1.43
 144  0.055  0.975  0.129-   8 1.09 139 1.36 136 1.42
 145  0.635  0.675  0.124-   9 1.09 153 1.37 317 1.44
 146  0.371  0.669  0.395-  10 1.09 154 1.37 320 1.44
 147  0.137  0.165  0.122-  11 1.10 155 1.37 329 1.45
 148  0.865  0.168  0.386-  12 1.09 156 1.37 335 1.44
 149  0.363  0.326  0.380-  13 1.09 157 1.37 338 1.45
 150  0.645  0.323  0.108-  14 1.09 158 1.37 344 1.43
 151  0.860  0.828  0.382-  15 1.09 159 1.37 353 1.44
 152  0.154  0.840  0.179-  16 1.09 160 1.37 356 1.44
 153  0.639  0.710  0.074- 145 1.37 201 1.42 161 1.47
 154  0.368  0.704  0.440- 146 1.37 202 1.43 162 1.48
 155  0.144  0.200  0.073- 147 1.37 203 1.42 163 1.49
 156  0.858  0.203  0.441- 148 1.37 204 1.42 164 1.47
 157  0.356  0.291  0.419- 149 1.37 205 1.42 165 1.48
 158  0.652  0.289  0.050- 150 1.37 206 1.42 166 1.47
 159  0.851  0.793  0.424- 151 1.37 207 1.42 167 1.47
 160  0.159  0.804  0.164- 152 1.37 208 1.43 168 1.47
 161  0.670  0.728  0.105- 169 1.40 193 1.41 153 1.47
 162  0.337  0.722  0.404- 170 1.40 194 1.41 154 1.48
 163  0.176  0.216  0.106- 171 1.41 195 1.41 155 1.49
 164  0.827  0.218  0.405- 172 1.40 196 1.41 156 1.47
 165  0.325  0.275  0.376- 173 1.41 197 1.41 157 1.48
 166  0.682  0.273  0.092- 174 1.40 198 1.41 158 1.47
 167  0.819  0.780  0.381- 175 1.40 199 1.41 159 1.47
 168  0.190  0.787  0.171- 176 1.41 200 1.41 160 1.47
 169  0.673  0.763  0.168-  17 1.09 177 1.39 161 1.40
 170  0.336  0.758  0.346-  18 1.09 178 1.39 162 1.40
 171  0.180  0.252  0.150-  19 1.09 179 1.39 163 1.41
 172  0.823  0.255  0.366-  20 1.09 180 1.39 164 1.40
 173  0.321  0.239  0.321-  21 1.09 181 1.39 165 1.41
 174  0.685  0.237  0.140-  22 1.09 182 1.39 166 1.40
 175  0.814  0.745  0.322-  23 1.09 183 1.39 167 1.40
 176  0.193  0.750  0.214-  24 1.09 184 1.38 168 1.41
 177  0.703  0.775  0.216-  25 1.09 169 1.39 185 1.41
 178  0.307  0.771  0.292-  26 1.09 170 1.39 186 1.40
 179  0.209  0.265  0.199-  27 1.09 171 1.39 187 1.40
 180  0.794  0.266  0.309-  28 1.09 172 1.39 188 1.41
 181  0.292  0.227  0.265-  29 1.09 173 1.39 189 1.41
 182  0.714  0.225  0.201-  30 1.09 174 1.39 190 1.41
 183  0.785  0.735  0.264-  31 1.09 175 1.39 191 1.41
 184  0.223  0.737  0.246-  32 1.09 176 1.38 192 1.40
 185  0.729  0.751  0.201- 409 1.35 177 1.41 191 1.48
 186  0.280  0.748  0.299- 410 1.35 178 1.40 192 1.47
 187  0.235  0.240  0.202- 411 1.35 179 1.40 189 1.48
 188  0.770  0.240  0.289- 412 1.35 180 1.41 190 1.47
 189  0.266  0.252  0.266- 413 1.35 181 1.41 187 1.48
 190  0.739  0.250  0.214- 414 1.35 182 1.41 188 1.47
 191  0.760  0.761  0.266- 415 1.35 183 1.41 185 1.48
 192  0.249  0.760  0.238- 416 1.35 184 1.40 186 1.47
 193  0.698  0.707  0.081-  33 1.10 409 1.33 161 1.41
 194  0.308  0.703  0.418-  34 1.10 410 1.33 162 1.41
 195  0.204  0.194  0.100-  35 1.10 411 1.33 163 1.41
 196  0.800  0.196  0.396-  36 1.10 412 1.33 164 1.41
 197  0.297  0.297  0.382-  37 1.10 413 1.33 165 1.41
 198  0.710  0.295  0.095-  38 1.09 414 1.33 166 1.41
 199  0.792  0.803  0.388-  39 1.10 415 1.33 167 1.41
 200  0.219  0.806  0.143-  40 1.10 416 1.33 168 1.41
 201  0.615  0.730  0.997- 433 1.17 153 1.42
 202  0.390  0.728  0.517- 434 1.17 154 1.43
 203  0.123  0.224  0.996- 435 1.17 155 1.42
 204  0.881  0.224  0.525- 436 1.17 156 1.42
 205  0.378  0.268  0.494- 437 1.17 157 1.42
 206  0.631  0.265  0.967- 438 1.17 158 1.42
 207  0.872  0.769  0.498- 439 1.17 159 1.42
 208  0.132  0.779  0.175- 440 1.17 160 1.43
 209  0.502  0.585  0.176-  41 1.08 122 1.39 121 1.39
 210  0.002  0.085  0.318-  42 1.08 124 1.39 123 1.39
 211  0.505  0.399  0.257-  43 1.09 126 1.39 125 1.40
 212  0.005  0.897  0.275-  44 1.09 128 1.40 127 1.40
 213  0.506  0.512  0.245- 215 1.43 130 1.43 129 1.44
 214  0.001  0.011  0.283- 216 1.43 131 1.43 132 1.44
 215  0.506  0.474  0.257- 213 1.43 134 1.43 133 1.43
 216  0.002  0.972  0.279- 135 1.42 136 1.43 214 1.43
 217  0.528  0.576  0.737- 305 1.39 225 1.41 362 1.46
 218  0.471  0.579  0.811- 305 1.38 226 1.43 371 1.48
 219  0.028  0.084  0.692- 227 1.44 306 1.44 374 1.48
 220  0.971  0.080  0.781- 306 1.34 228 1.41 383 1.47
 221  0.468  0.424  0.796- 307 1.39 229 1.42 386 1.47
 222  0.525  0.423  0.695- 307 1.39 230 1.42 392 1.48
 223  0.975  0.928  0.798- 308 1.39 231 1.41 401 1.48
 224  0.032  0.928  0.709- 308 1.41 232 1.43 407 1.48
 225  0.527  0.538  0.710- 217 1.41 233 1.42 309 1.43
 226  0.469  0.540  0.808- 234 1.42 218 1.43 309 1.44
 227  0.030  0.046  0.695- 235 1.43 219 1.44 310 1.44
 228  0.973  0.043  0.803- 220 1.41 236 1.42 310 1.43
 229  0.468  0.462  0.807- 221 1.42 237 1.42 311 1.43
 230  0.525  0.461  0.694- 222 1.42 238 1.43 311 1.44
 231  0.976  0.966  0.810- 223 1.41 239 1.42 312 1.44
 232  0.032  0.967  0.701- 240 1.43 312 1.43 224 1.43
 233  0.553  0.518  0.632-  45 1.09 238 1.36 225 1.42
 234  0.442  0.520  0.869-  46 1.09 237 1.37 226 1.42
 235  0.058  0.025  0.636-  47 1.09 240 1.37 227 1.43
 236  0.948  0.022  0.884-  48 1.08 239 1.36 228 1.42
 237  0.442  0.483  0.871-  49 1.09 234 1.37 229 1.42
 238  0.552  0.481  0.624-  50 1.09 233 1.36 230 1.43
 239  0.949  0.986  0.889-  51 1.09 236 1.36 231 1.42
 240  0.059  0.988  0.638-  52 1.09 235 1.37 232 1.43
 241  0.634  0.675  0.632-  53 1.09 249 1.37 365 1.44
 242  0.360  0.673  0.865-  54 1.10 250 1.37 368 1.44
 243  0.134  0.184  0.611-  55 1.10 251 1.37 377 1.43
 244  0.858  0.170  0.863-  56 1.09 252 1.37 380 1.44
 245  0.358  0.330  0.851-  57 1.09 253 1.37 389 1.43
 246  0.637  0.331  0.597-  58 1.09 254 1.37 395 1.44
 247  0.858  0.841  0.825-  59 1.09 255 1.37 398 1.45
 248  0.136  0.826  0.610-  60 1.09 256 1.38 404 1.43
 249  0.639  0.710  0.577- 241 1.37 297 1.42 257 1.48
 250  0.351  0.708  0.912- 242 1.37 298 1.42 258 1.48
 251  0.141  0.218  0.552- 243 1.37 299 1.42 259 1.47
 252  0.851  0.204  0.923- 244 1.37 300 1.43 260 1.48
 253  0.352  0.296  0.911- 245 1.37 301 1.41 261 1.47
 254  0.645  0.296  0.543- 246 1.37 302 1.42 262 1.48
 255  0.849  0.808  0.888- 247 1.37 303 1.41 263 1.48
 256  0.136  0.789  0.622- 248 1.38 304 1.41 264 1.47
 257  0.670  0.727  0.611- 265 1.40 289 1.41 249 1.48
 258  0.319  0.720  0.880- 266 1.40 290 1.41 250 1.48
 259  0.172  0.233  0.588- 267 1.40 291 1.41 251 1.47
 260  0.820  0.220  0.881- 268 1.40 292 1.41 252 1.48
 261  0.320  0.281  0.880- 269 1.40 293 1.41 253 1.47
 262  0.676  0.281  0.586- 270 1.40 294 1.41 254 1.48
 263  0.818  0.793  0.852- 271 1.40 295 1.41 255 1.48
 264  0.166  0.770  0.649- 272 1.40 296 1.41 256 1.47
 265  0.672  0.764  0.665-  61 1.09 273 1.39 257 1.40
 266  0.313  0.754  0.816-  62 1.09 274 1.39 258 1.40
 267  0.176  0.268  0.653-  63 1.09 275 1.39 259 1.40
 268  0.817  0.257  0.841-  64 1.09 276 1.39 260 1.40
 269  0.315  0.245  0.822-  65 1.09 277 1.38 261 1.40
 270  0.679  0.244  0.622-  66 1.09 278 1.38 262 1.40
 271  0.814  0.756  0.816-  67 1.09 279 1.38 263 1.40
 272  0.168  0.738  0.742-  68 1.09 280 1.39 264 1.40
 273  0.701  0.777  0.713-  69 1.09 265 1.39 281 1.40
 274  0.283  0.763  0.771-  70 1.09 266 1.39 282 1.40
 275  0.205  0.278  0.711-  71 1.09 267 1.39 283 1.40
 276  0.789  0.269  0.785-  72 1.09 268 1.39 284 1.40
 277  0.286  0.235  0.768-  73 1.09 269 1.38 285 1.40
 278  0.708  0.232  0.680-  74 1.09 270 1.38 286 1.40
 279  0.784  0.743  0.771-  75 1.09 271 1.38 287 1.40
 280  0.198  0.726  0.785-  76 1.09 272 1.39 288 1.41
 281  0.728  0.755  0.705- 425 1.35 273 1.40 287 1.48
 282  0.258  0.738  0.792- 426 1.35 274 1.40 288 1.48
 283  0.230  0.253  0.702- 427 1.35 275 1.40 285 1.47
 284  0.763  0.245  0.769- 428 1.35 276 1.40 286 1.48
 285  0.261  0.261  0.773- 429 1.35 277 1.40 283 1.47
 286  0.733  0.257  0.700- 430 1.35 278 1.40 284 1.48
 287  0.759  0.768  0.763- 431 1.35 279 1.40 281 1.48
 288  0.226  0.747  0.738- 432 1.35 280 1.41 282 1.48
 289  0.699  0.708  0.596-  77 1.10 425 1.33 257 1.41
 290  0.292  0.697  0.906-  78 1.09 426 1.33 258 1.41
 291  0.199  0.211  0.570-  79 1.10 427 1.33 259 1.41
 292  0.792  0.199  0.873-  80 1.09 428 1.33 260 1.41
 293  0.293  0.303  0.897-  81 1.09 429 1.32 261 1.41
 294  0.703  0.303  0.599-  82 1.10 430 1.33 262 1.41
 295  0.790  0.815  0.852-  83 1.09 431 1.33 263 1.41
 296  0.195  0.787  0.595-  84 1.09 432 1.32 264 1.41
 297  0.617  0.732  0.498- 417 1.17 249 1.42
 298  0.372  0.735  0.973- 418 1.17 250 1.42
 299  0.120  0.242  0.473- 419 1.17 251 1.42
 300  0.871  0.228  0.015- 420 1.17 252 1.43
 301  0.372  0.271  0.986- 421 1.19 253 1.41
 302  0.625  0.271  0.457- 422 1.17 254 1.42
 303  0.867  0.784  0.978- 423 1.20 255 1.41
 304  0.106  0.774  0.656- 424 1.18 256 1.41 480 2.66
 305  0.501  0.594  0.791-  85 1.08 218 1.38 217 1.39
 306  0.996  0.099  0.727-  86 1.09 220 1.34 219 1.44 475 2.80
 307  0.496  0.406  0.743-  87 1.08 221 1.39 222 1.39
 308  0.004  0.910  0.755-  88 1.11 223 1.39 224 1.41
 309  0.498  0.520  0.759- 225 1.43 311 1.44 226 1.44
 310  0.003  0.025  0.750- 228 1.43 312 1.44 227 1.44
 311  0.497  0.481  0.754- 229 1.43 309 1.44 230 1.44
 312  0.004  0.986  0.754- 232 1.43 231 1.44 310 1.44
 313  0.554  0.630  0.065-  89 1.09 318 1.40 314 1.45 481 2.32
 314  0.559  0.595  0.142- 315 1.41 313 1.45 121 1.48 481 2.67
 315  0.588  0.591  0.226- 441 1.33 314 1.41 316 1.46 473 2.49
 316  0.613  0.618  0.211- 442 1.32 317 1.43 315 1.46 473 2.49
 317  0.608  0.650  0.120- 318 1.41 316 1.43 145 1.44
 318  0.578  0.656  0.051-  90 1.09 313 1.40 317 1.41 481 2.80
 319  0.392  0.608  0.320-  91 1.09 324 1.39 320 1.41
 320  0.397  0.643  0.384- 319 1.41 321 1.42 146 1.44
 321  0.430  0.652  0.409- 443 1.36 320 1.42 322 1.43 482 2.32 474 2.49
 322  0.455  0.629  0.345- 444 1.41 323 1.42 321 1.43 482 2.36 474 2.43
 323  0.449  0.593  0.293- 324 1.41 322 1.42 122 1.46
 324  0.416  0.583  0.284-  92 1.09 319 1.39 323 1.41
 325  0.090  0.082  0.233-  93 1.09 330 1.39 326 1.41
 326  0.058  0.091  0.213- 325 1.41 327 1.41 123 1.46
 327  0.053  0.126  0.147- 445 1.38 326 1.41 328 1.43 483 2.32 475 2.49
 328  0.078  0.150  0.093- 446 1.35 329 1.42 327 1.43 483 2.33 475 2.60
 329  0.110  0.141  0.129- 330 1.42 328 1.42 147 1.45
 330  0.114  0.106  0.196-  94 1.09 325 1.39 329 1.42
 331  0.948  0.128  0.445-  95 1.09 336 1.41 332 1.44 484 2.34
 332  0.945  0.093  0.365- 333 1.42 331 1.44 124 1.48 484 2.86
 333  0.916  0.086  0.285- 447 1.33 332 1.42 334 1.46 476 2.50
 334  0.890  0.112  0.298- 448 1.32 335 1.43 333 1.46 476 2.48
 335  0.892  0.145  0.391- 336 1.42 334 1.43 148 1.44 484 2.86
 336  0.922  0.153  0.461-  96 1.09 331 1.41 335 1.42 484 2.38
 337  0.421  0.339  0.461-  97 1.09 342 1.41 338 1.43 485 2.39
 338  0.392  0.348  0.389- 337 1.43 339 1.43 149 1.45
 339  0.390  0.381  0.300- 449 1.32 338 1.43 340 1.46 477 2.49
 340  0.418  0.404  0.280- 450 1.32 341 1.42 339 1.46 477 2.50
 341  0.448  0.395  0.353- 340 1.42 342 1.43 125 1.49
 342  0.448  0.362  0.443-  98 1.09 337 1.41 341 1.43 485 2.40
 343  0.618  0.376  0.224-  99 1.09 344 1.39 348 1.41
 344  0.618  0.347  0.110- 343 1.39 150 1.43 345 1.47
 345  0.590  0.341  0.010- 451 1.24 344 1.47 346 1.50
 346  0.563  0.366  0.038- 452 1.29 347 1.42 345 1.50 478 2.83
 347  0.563  0.394  0.165- 348 1.40 346 1.42 126 1.48
 348  0.590  0.398  0.256- 100 1.09 347 1.40 343 1.41
 349  0.946  0.859  0.449- 101 1.09 354 1.41 350 1.43 487 2.30
 350  0.947  0.892  0.359- 351 1.42 349 1.43 127 1.48 487 2.51
 351  0.919  0.903  0.279- 453 1.32 350 1.42 352 1.46 479 2.51 487 2.78
 352  0.890  0.881  0.297- 454 1.32 353 1.43 351 1.46 479 2.51
 353  0.890  0.848  0.389- 354 1.42 352 1.43 151 1.44 487 2.81
 354  0.918  0.837  0.462- 102 1.09 349 1.41 353 1.42 487 2.46
 355  0.120  0.894  0.265- 103 1.09 360 1.40 356 1.44 488 2.27
 356  0.124  0.860  0.175- 357 1.43 355 1.44 152 1.44 488 2.46
 357  0.098  0.847  0.080- 455 1.30 356 1.43 358 1.47 480 2.67 488 2.73
 358  0.067  0.865  0.089- 456 1.31 359 1.42 357 1.47 480 2.67
 359  0.063  0.897  0.190- 358 1.42 360 1.42 128 1.48
 360  0.090  0.911  0.270- 104 1.09 355 1.40 359 1.42 488 2.52
 361  0.587  0.592  0.755- 105 1.09 366 1.41 362 1.42 473 2.44
 362  0.556  0.599  0.704- 363 1.41 361 1.42 217 1.46
 363  0.551  0.633  0.626- 457 1.36 362 1.41 364 1.45 481 2.59
 364  0.577  0.655  0.561- 458 1.30 365 1.44 363 1.45 481 2.65
 365  0.607  0.650  0.638- 366 1.44 241 1.44 364 1.44 473 2.64
 366  0.611  0.618  0.735- 106 1.09 361 1.41 365 1.44 473 2.26
 367  0.388  0.618  0.773- 107 1.09 372 1.38 368 1.42
 368  0.389  0.652  0.860- 367 1.42 369 1.43 242 1.44
 369  0.418  0.662  0.938- 459 1.31 368 1.43 370 1.46 482 2.68
 370  0.446  0.640  0.904- 460 1.34 371 1.45 369 1.46 474 2.69 482 2.72
 371  0.444  0.605  0.826- 372 1.42 370 1.45 218 1.48
 372  0.414  0.595  0.759- 108 1.09 367 1.38 371 1.42
 373  0.084  0.104  0.730- 109 1.09 378 1.38 374 1.42
 374  0.054  0.111  0.665- 373 1.42 375 1.46 219 1.48 475 2.53
 375  0.050  0.145  0.578- 461 1.35 374 1.46 376 1.46 475 2.59 483 2.68
 376  0.078  0.168  0.549- 462 1.31 377 1.42 375 1.46 483 2.61
 377  0.107  0.160  0.622- 378 1.41 376 1.42 243 1.43
 378  0.110  0.128  0.710- 110 1.09 373 1.38 377 1.41
 379  0.885  0.113  0.767- 111 1.09 384 1.41 380 1.43 476 2.36
 380  0.886  0.147  0.861- 379 1.43 381 1.43 244 1.44 476 2.78
 381  0.914  0.155  0.944- 463 1.30 380 1.43 382 1.45 484 2.51
 382  0.943  0.135  0.899- 464 1.35 383 1.41 381 1.45 484 2.48
 383  0.941  0.101  0.812- 382 1.41 384 1.42 220 1.47
 384  0.911  0.090  0.751- 112 1.09 379 1.41 383 1.42 476 2.35
 385  0.411  0.409  0.749- 113 1.09 390 1.41 386 1.43 477 2.36
 386  0.440  0.401  0.824- 387 1.42 385 1.43 221 1.47 477 2.71
 387  0.441  0.368  0.913- 465 1.35 386 1.42 388 1.44 485 2.82
 388  0.413  0.345  0.934- 466 1.30 389 1.42 387 1.44 485 2.72 477 2.80
 389  0.385  0.353  0.848- 388 1.42 390 1.43 245 1.43 477 2.57
 390  0.384  0.386  0.756- 114 1.09 385 1.41 389 1.43 477 2.32
 391  0.583  0.408  0.715- 115 1.09 396 1.40 392 1.41
 392  0.553  0.400  0.654- 391 1.41 393 1.43 222 1.48
 393  0.550  0.365  0.569- 467 1.30 392 1.43 394 1.49 486 2.80
 394  0.579  0.344  0.522- 468 1.29 395 1.44 393 1.49 486 2.80
 395  0.609  0.353  0.597- 396 1.41 246 1.44 394 1.44
 396  0.609  0.386  0.692- 116 1.09 391 1.40 395 1.41
 397  0.889  0.897  0.744- 117 1.09 402 1.41 398 1.44 479 2.26
 398  0.887  0.863  0.827- 399 1.42 397 1.44 247 1.45 479 2.41
 399  0.915  0.852  0.913- 469 1.31 398 1.42 400 1.46 487 2.54 479 2.67
 400  0.944  0.873  0.904- 470 1.32 401 1.42 399 1.46 487 2.56
 401  0.945  0.907  0.816- 400 1.42 402 1.42 223 1.48
 402  0.917  0.918  0.743- 118 1.09 397 1.41 401 1.42 479 2.48
 403  0.079  0.845  0.553- 119 1.09 408 1.39 404 1.43 480 2.45
 404  0.110  0.851  0.615- 405 1.43 403 1.43 248 1.43 480 2.75
 405  0.116  0.884  0.707- 471 1.32 404 1.43 406 1.46 488 2.48
 406  0.090  0.911  0.735- 472 1.33 407 1.41 405 1.46 488 2.48
 407  0.060  0.905  0.668- 406 1.41 408 1.42 224 1.48
 408  0.055  0.872  0.578- 120 1.09 403 1.39 407 1.42
 409  0.726  0.718  0.129- 193 1.33 185 1.35
 410  0.281  0.715  0.367- 194 1.33 186 1.35
 411  0.232  0.206  0.147- 195 1.33 187 1.35
 412  0.772  0.206  0.339- 196 1.33 188 1.35
 413  0.269  0.286  0.328- 197 1.33 189 1.35
 414  0.738  0.284  0.155- 198 1.33 190 1.35
 415  0.764  0.794  0.332- 199 1.33 191 1.35
 416  0.247  0.794  0.179- 200 1.33 192 1.35
 417  0.601  0.753  0.430- 297 1.17
 418  0.385  0.761  0.022- 298 1.17
 419  0.109  0.267  0.407- 299 1.17
 420  0.883  0.251  0.092- 300 1.17
 421  0.384  0.247  0.057- 301 1.19
 422  0.612  0.248  0.385- 302 1.17
 423  0.876  0.760  0.064- 303 1.20
 424  0.079  0.768  0.697- 304 1.18 480 2.15
 425  0.727  0.721  0.643- 289 1.33 281 1.35
 426  0.262  0.705  0.864- 290 1.33 282 1.35
 427  0.228  0.220  0.626- 291 1.33 283 1.35
 428  0.765  0.210  0.818- 292 1.33 284 1.35
 429  0.265  0.294  0.844- 293 1.32 285 1.35
 430  0.731  0.292  0.655- 294 1.33 286 1.35
 431  0.762  0.803  0.809- 295 1.33 287 1.35
 432  0.224  0.776  0.640- 296 1.32 288 1.35
 433  0.595  0.746  0.928- 201 1.17
 434  0.404  0.752  0.582- 202 1.17
 435  0.109  0.245  0.925- 203 1.17
 436  0.900  0.241  0.597- 204 1.17
 437  0.397  0.251  0.559- 205 1.17
 438  0.617  0.241  0.900- 206 1.17
 439  0.889  0.749  0.563- 207 1.17
 440  0.112  0.757  0.203- 208 1.17
 441  0.592  0.563  0.331- 315 1.33 473 1.91
 442  0.638  0.613  0.299- 316 1.32 473 1.92
 443  0.441  0.685  0.465- 321 1.36 474 2.15 482 2.25
 444  0.484  0.647  0.337- 322 1.41 481 2.08 474 2.11 482 2.18
 445  0.023  0.140  0.134- 327 1.38 475 1.98 483 2.11
 446  0.067  0.181  0.034- 328 1.35 475 2.15 483 2.19
 447  0.912  0.057  0.182- 333 1.33 476 1.93
 448  0.864  0.105  0.209- 334 1.32 476 1.92
 449  0.365  0.390  0.217- 339 1.32 477 1.92
 450  0.416  0.432  0.179- 340 1.32 477 1.92
 451  0.588  0.315  0.904- 345 1.24
 452  0.539  0.360  0.943- 346 1.29 478 1.88
 453  0.918  0.931  0.178- 351 1.32 479 1.92
 454  0.865  0.891  0.214- 352 1.32 479 1.93
 455  0.101  0.819  0.976- 357 1.30 480 1.94
 456  0.045  0.851  0.000- 358 1.31 480 1.97
 457  0.522  0.643  0.573- 363 1.36 481 1.98 474 2.03
 458  0.571  0.676  0.437- 364 1.30 481 2.05
 459  0.419  0.689  0.049- 369 1.31 482 1.94
 460  0.472  0.653  0.978- 370 1.34 482 2.04
 461  0.024  0.154  0.497- 375 1.35 483 2.04
 462  0.075  0.195  0.445- 376 1.31 483 1.93
 463  0.916  0.180  0.062- 381 1.30 484 1.96
 464  0.970  0.148  0.966- 382 1.35 484 1.96 475 2.58
 465  0.466  0.356  0.993- 387 1.35 478 1.95 485 2.10
 466  0.414  0.318  0.036- 388 1.30 485 1.95
 467  0.524  0.351  0.521- 393 1.30 486 2.02
 468  0.576  0.317  0.418- 394 1.29 486 2.02
 469  0.914  0.824  0.009- 399 1.31 487 1.93
 470  0.968  0.861  0.991- 400 1.32 487 1.95
 471  0.142  0.889  0.788- 405 1.32 488 1.94
 472  0.096  0.938  0.839- 406 1.33 488 1.93
 473  0.619  0.587  0.486- 441 1.91 442 1.92 366 2.26 361 2.44 315 2.49 316 2.49 365 2.64
 474  0.475  0.656  0.601- 457 2.03 444 2.11 443 2.15 322 2.43 321 2.49 370 2.69 481 3.18 482 3.56

 475  0.031  0.154  0.893- 445 1.98 446 2.15 327 2.49 374 2.53 464 2.58 375 2.59 328 2.60 306 2.80
                           483 3.32
 476  0.886  0.080  0.019- 448 1.92 447 1.93 384 2.35 379 2.36 334 2.48 333 2.50 380 2.78
 477  0.386  0.412  0.025- 449 1.92 450 1.92 390 2.32 385 2.36 339 2.49 340 2.50 389 2.57 386 2.71
                           388 2.80
 478  0.506  0.327  0.987- 452 1.88 465 1.95 346 2.83 485 2.83 486 3.06
 479  0.887  0.914  0.023- 453 1.92 454 1.93 397 2.26 398 2.41 402 2.48 351 2.51 352 2.51 399 2.67

 480  0.065  0.818  0.829- 455 1.94 456 1.97 424 2.15 403 2.45 304 2.66 357 2.67 358 2.67 404 2.75

 481  0.534  0.650  0.328- 457 1.98 458 2.05 444 2.08 313 2.32 363 2.59 364 2.65 314 2.67 318 2.80
                           474 3.18
 482  0.456  0.682  0.186- 459 1.94 460 2.04 444 2.18 443 2.25 321 2.32 322 2.36 369 2.68 370 2.72
                           474 3.56
 483  0.043  0.180  0.289- 462 1.93 461 2.04 445 2.11 446 2.19 327 2.32 328 2.33 376 2.61 375 2.68
                           475 3.32
 484  0.950  0.160  0.191- 463 1.96 464 1.96 331 2.34 336 2.38 382 2.48 381 2.51 335 2.86 332 2.86

 485  0.448  0.323  0.194- 466 1.95 465 2.10 337 2.39 342 2.40 388 2.72 387 2.82 478 2.83
 486  0.531  0.312  0.337- 467 2.02 468 2.02 394 2.80 393 2.80 478 3.06
 487  0.945  0.836  0.174- 469 1.93 470 1.95 349 2.30 354 2.46 350 2.51 399 2.54 400 2.56 351 2.78
                           353 2.81
 488  0.123  0.912  0.991- 472 1.93 471 1.94 355 2.27 356 2.46 405 2.48 406 2.48 360 2.52 357 2.73

 
  LATTYP: Found a triclinic cell.
 ALAT       =     7.8682300000
 B/A-ratio  =     5.5895651248
 C/A-ratio  =     4.7034593549
 COS(alpha) =     0.0036452437
 COS(beta)  =     0.0212268453
 COS(gamma) =     0.3074285758
  
  Lattice vectors:
  
 A1 = (   0.4160014281,  -0.1652947348,   7.8554862227)
 A2 = ( -41.0766971439,  -0.3305894697,  15.7109724454)
 A3 = (   0.1534031155, -37.0075820595,   0.0000000000)


Analysis of symmetry for initial positions (statically):
=====================================================================
 Subroutine PRICEL returns:
 Original cell was already a primitive cell.
 

 Routine SETGRP: Setting up the symmetry group for a 
 triclinic supercell.


 Subroutine GETGRP returns: Found  1 space group operations
 (whereof  1 operations were pure point group operations)
 out of a pool of  2 trial point group operations.


The static configuration has the point symmetry C_1 .


Analysis of symmetry for dynamics (positions and initial velocities):
=====================================================================
 Subroutine PRICEL returns:
 Original cell was already a primitive cell.
 

 Routine SETGRP: Setting up the symmetry group for a 
 triclinic supercell.


 Subroutine GETGRP returns: Found  1 space group operations
 (whereof  1 operations were pure point group operations)
 out of a pool of  2 trial point group operations.


The dynamic configuration has the point symmetry C_1 .


 Subroutine INISYM returns: Found  1 space group operations
 (whereof  1 operations are pure point group operations),
 and found     1 'primitive' translations


----------------------------------------------------------------------------------------

                                     Primitive cell                                     

  volume of cell :   12183.3851

  direct lattice vectors                    reciprocal lattice vectors
    41.908700000  0.000000000  0.000000000     0.023861394  0.000098910 -0.001261542
    -0.153403115 37.007582060  0.000000000    -0.000000000  0.027021490  0.000568585
     0.416001428 -0.165294735  7.855486223     0.000000000 -0.000000000  0.127299568

  length of vectors
    41.908700000 37.007900000  7.868230000     0.023894924  0.027027471  0.127299568

  position of ions in fractional coordinates (direct lattice)
     0.582580761  0.524702250  0.081377843
     0.431550565  0.527877083  0.441450652
     0.073007288  0.026791143  0.066503190
     0.924489156  0.022403378  0.449927801
     0.432087120  0.461891834  0.459083929
     0.582371224  0.458516525  0.090311515
     0.927085265  0.956803791  0.454508256
     0.073023092  0.960862611  0.049612320
     0.654642152  0.664372182  0.188391469
     0.350056207  0.657169055  0.338138387
     0.157672551  0.152099529  0.178519151
     0.846287954  0.154932935  0.314544311
     0.344728735  0.340040058  0.314532168
     0.664470453  0.334668246  0.183836510
     0.842007214  0.843133920  0.318466092
     0.174732354  0.856740187  0.205219517
     0.651919516  0.780907061  0.185309352
     0.357598409  0.774117552  0.337456897
     0.159055360  0.270429148  0.152623218
     0.842984394  0.273460701  0.374693326
     0.341658765  0.220999045  0.314779633
     0.664978798  0.218533191  0.134367409
     0.834055449  0.725485445  0.315867241
     0.171880179  0.733260570  0.228344638
     0.706164771  0.802245601  0.270140248
     0.305540053  0.797869983  0.241564191
     0.212632162  0.292677040  0.238478555
     0.790050202  0.293542420  0.272871446
     0.288367255  0.199770003  0.218446304
     0.717260372  0.197916190  0.243877463
     0.780159751  0.707969338  0.212486398
     0.226136064  0.709062765  0.284197175
     0.696715239  0.680735871  0.018356968
     0.307265037  0.676340980  0.477132858
     0.202670023  0.166253228  0.051593357
     0.801081970  0.167638136  0.439370203
     0.297520584  0.324131661  0.436382707
     0.709852443  0.321804581  0.042545011
     0.794449036  0.830540689  0.444404569
     0.218349493  0.833512708  0.090085251
     0.498805634  0.611467211  0.129331147
     0.003474953  0.113995185  0.345833741
     0.504122935  0.369342778  0.252144470
     0.005824097  0.867279703  0.268074463
     0.572491384  0.532349321  0.569037566
     0.421181758  0.535338711  0.920977698
     0.078763043  0.040133663  0.585174803
     0.929623998  0.036752776  0.957708380
     0.421427266  0.469643294  0.930873063
     0.571374997  0.466301229  0.557755476
     0.931511028  0.970841786  0.965344423
     0.080405315  0.974544254  0.591713180
     0.654519573  0.664646419  0.697530487
     0.340400650  0.657779949  0.806594652
     0.154667094  0.172407195  0.675281498
     0.838863372  0.157764111  0.788894704
     0.337950099  0.340554916  0.782714902
     0.656008476  0.343835136  0.668066024
     0.840016688  0.853334500  0.749283814
     0.158901497  0.839578544  0.627086397
     0.650258574  0.780202458  0.674053056
     0.332892103  0.773193997  0.798586372
     0.155671924  0.286425704  0.663027452
     0.838094364  0.274556893  0.850550161
     0.335484436  0.226093544  0.814266489
     0.658877473  0.226079708  0.610707859
     0.834259595  0.737839576  0.821136629
     0.146680369  0.723931742  0.785437321
     0.703352337  0.805214956  0.759224047
     0.277581481  0.789088504  0.716095897
     0.209715836  0.304528243  0.767654648
     0.785882716  0.297179114  0.749080224
     0.281004987  0.208205103  0.715336176
     0.711013752  0.204031638  0.714053039
     0.780511430  0.714966057  0.737682223
     0.200822685  0.701804749  0.857589462
     0.698871004  0.680283243  0.541123325
     0.294310112  0.671017166  0.966679393
     0.197648378  0.184321286  0.504547016
     0.792537578  0.170726486  0.916263495
     0.295064861  0.329908691  0.957950358
     0.702963033  0.331091107  0.558764873
     0.791564134  0.843196389  0.892699700
     0.195397637  0.809626220  0.510462481
     0.502461907  0.622755145  0.824072420
     0.995812106  0.128029796  0.698814663
     0.495378747  0.376581762  0.734703700
     0.009037165  0.881098573  0.762555221
     0.532655117  0.633878699  0.997145286
     0.573682334  0.680932150  0.986248511
     0.367227469  0.600572089  0.294229177
     0.410141068  0.556408225  0.236298944
     0.095403289  0.056166711  0.287212512
     0.138793349  0.099015480  0.223417597
     0.969817250  0.134497054  0.504581120
     0.925665786  0.177904680  0.534259925
     0.422850304  0.314895009  0.537944315
     0.469816666  0.355531724  0.505507909
     0.638231055  0.381384528  0.299583304
     0.590815596  0.419170817  0.354833294
     0.966863216  0.851420201  0.517533609
     0.918767003  0.812356966  0.535302164
     0.138651406  0.903730352  0.344850551
     0.087261362  0.936166624  0.346336990
     0.591352499  0.568144314  0.830693272
     0.633586707  0.615434916  0.800896218
     0.366130482  0.610556518  0.713265250
     0.412069563  0.569734804  0.688473555
     0.087132546  0.079393207  0.803294871
     0.132254757  0.121513622  0.765919827
     0.863373984  0.106561090  0.699433065
     0.910465581  0.065695194  0.672065291
     0.410073453  0.433400262  0.671363138
     0.363514203  0.391640515  0.684065464
     0.585310781  0.433143943  0.791360393
     0.631510711  0.393322449  0.751505296
     0.868673965  0.905628049  0.671744518
     0.917186599  0.943854020  0.678876633
     0.074676299  0.822271006  0.467901003
     0.032497141  0.867557516  0.519695347
     0.532333288  0.569151684  0.163651207
     0.475274594  0.568243015  0.252113905
     0.029909242  0.068371456  0.255093435
     0.972612242  0.068280348  0.343014577
     0.476944615  0.416666134  0.313527202
     0.533580782  0.415880999  0.208277646
     0.976053700  0.913781252  0.328937426
     0.032193222  0.915938857  0.221990665
     0.533875868  0.531046370  0.184323973
     0.476942139  0.531386809  0.295575653
     0.029093192  0.030636875  0.225182993
     0.972502775  0.029754081  0.339731261
     0.477883083  0.455007981  0.321348798
     0.534089128  0.454096868  0.202347920
     0.974987775  0.952205438  0.339550937
     0.030190745  0.954081893  0.212927988
     0.561414016  0.510513536  0.131440846
     0.451661879  0.512596536  0.384186241
     0.054310388  0.011555859  0.135053000
     0.946191265  0.008680958  0.402294159
     0.452035117  0.475875739  0.394991980
     0.561331136  0.473647523  0.137422989
     0.947692096  0.971856429  0.405251092
     0.054806560  0.974776356  0.129163010
     0.634535197  0.675425626  0.123839299
     0.371262342  0.668657478  0.394555294
     0.137377415  0.164879548  0.121566748
     0.864960203  0.167983361  0.385789356
     0.363199089  0.325851392  0.379527403
     0.645450716  0.323426886  0.108462622
     0.859920705  0.827833024  0.382487283
     0.153741774  0.840308173  0.179069532
     0.638682557  0.710421981  0.073826164
     0.367568175  0.704409646  0.440329751
     0.143860907  0.199678552  0.073251336
     0.858198773  0.202553643  0.440911787
     0.355756977  0.290834249  0.419148494
     0.651708328  0.288785099  0.049957056
     0.850937813  0.793483967  0.424161546
     0.158521662  0.803637511  0.164067501
     0.669559264  0.727999379  0.104514132
     0.337148428  0.722076128  0.403919784
     0.175600940  0.215562895  0.106151998
     0.827089771  0.218092575  0.404645346
     0.324587676  0.275193964  0.376389099
     0.682469235  0.272893472  0.091795636
     0.819120300  0.780128866  0.381175028
     0.190038566  0.786804051  0.170784108
     0.672863087  0.763477019  0.167531200
     0.335939088  0.757677063  0.346390920
     0.179528843  0.252238440  0.150334708
     0.823033194  0.254578669  0.366298712
     0.321096907  0.239120578  0.320696758
     0.685461457  0.236789298  0.139661887
     0.814287969  0.744631758  0.321880394
     0.193115838  0.750336017  0.213802484
     0.702670910  0.775263680  0.215932613
     0.307304292  0.770842782  0.292418572
     0.209113336  0.264646688  0.198739863
     0.794057159  0.265721984  0.308526830
     0.291810821  0.227338288  0.265482520
     0.714080918  0.225401209  0.200923424
     0.784759518  0.734958479  0.263568279
     0.222850078  0.736820966  0.245710731
     0.728710395  0.751374447  0.201463051
     0.280211775  0.748407004  0.298733817
     0.234758122  0.240440442  0.202138185
     0.769508462  0.240238034  0.288863713
     0.266054215  0.251573256  0.266004206
     0.739352798  0.250241363  0.213781040
     0.760217303  0.760778775  0.266411620
     0.249337470  0.760212330  0.238247200
     0.697734642  0.707438628  0.080567620
     0.308097677  0.702876797  0.417928037
     0.203530968  0.194243663  0.099711997
     0.799968050  0.195516612  0.396072736
     0.296778419  0.296630901  0.382333777
     0.710133033  0.294636087  0.094906102
     0.792498077  0.803353950  0.388103760
     0.218737344  0.806414610  0.143267384
     0.614589679  0.730181253  0.996903122
     0.389760522  0.728231244  0.516542840
     0.122674076  0.223518900  0.995669709
     0.880849533  0.224184222  0.524833783
     0.378248968  0.268305088  0.494358426
     0.630717130  0.264719351  0.966857271
     0.872087464  0.769172855  0.498207408
     0.132158876  0.779170067  0.174942404
     0.502118480  0.584547108  0.176387119
     0.002026407  0.085414663  0.317952303
     0.504917949  0.398808429  0.256815459
     0.004742389  0.896752349  0.275042788
     0.505633259  0.512140449  0.244904849
     0.001175789  0.011052296  0.282616663
     0.505914799  0.473659882  0.257426514
     0.002131252  0.972392017  0.279346124
     0.528357209  0.575943569  0.736920764
     0.470623205  0.578827928  0.810835113
     0.027810793  0.084206024  0.692009855
     0.970737254  0.080324522  0.780885607
     0.468213501  0.423888266  0.796036391
     0.524741393  0.422832577  0.695392143
     0.975112402  0.928151086  0.798049740
     0.032324681  0.928479136  0.708798233
     0.526925027  0.538165617  0.709799258
     0.469312358  0.540098915  0.808358931
     0.030146175  0.045507848  0.694602987
     0.973247593  0.042707613  0.802520687
     0.468475152  0.462335174  0.807003179
     0.525158334  0.461264747  0.693895086
     0.975541110  0.966279694  0.810165870
     0.032159420  0.967099413  0.700591045
     0.552680222  0.517880443  0.631667560
     0.441949798  0.520346608  0.868921605
     0.057825140  0.025447093  0.636078607
     0.948295601  0.022352731  0.884045216
     0.441961667  0.483378100  0.871481968
     0.551800254  0.481054674  0.623591003
     0.949380827  0.985727664  0.889481479
     0.058611932  0.988394833  0.638311236
     0.634202272  0.675032375  0.631738783
     0.359708468  0.672775716  0.865121806
     0.134456403  0.183557460  0.611080724
     0.857810261  0.169558113  0.863176426
     0.357675780  0.329677747  0.851121612
     0.637260571  0.330841725  0.596540077
     0.858291655  0.841321376  0.824686604
     0.135941418  0.826241648  0.610205085
     0.639084955  0.709586256  0.577062303
     0.351214714  0.707504516  0.911681599
     0.140505698  0.217643976  0.552490213
     0.850877509  0.203874671  0.923058610
     0.351653456  0.295647726  0.910543678
     0.644921807  0.296299595  0.542674067
     0.849483838  0.808229664  0.887695783
     0.136310278  0.789036998  0.622400582
     0.669871060  0.727335834  0.610766957
     0.318531870  0.719723656  0.880250601
     0.172072888  0.232793997  0.588148052
     0.820155684  0.219963311  0.880813569
     0.319936924  0.280620136  0.879602474
     0.675925529  0.281087032  0.585947164
     0.817745200  0.793131696  0.851610645
     0.166246727  0.770124700  0.649265103
     0.671740203  0.763587633  0.665261632
     0.313028855  0.754133302  0.816444429
     0.175971819  0.267995052  0.652742007
     0.817496050  0.256602672  0.841184084
     0.315417773  0.244959006  0.822085931
     0.679156862  0.244347766  0.622498870
     0.813893507  0.756053353  0.816263740
     0.168347788  0.738299750  0.742017897
     0.700820254  0.777467179  0.712845612
     0.282611705  0.763030332  0.770625426
     0.205441150  0.277939651  0.710970778
     0.788896056  0.269198267  0.784993798
     0.285693696  0.235057483  0.767622501
     0.707736494  0.232099564  0.680174591
     0.784410055  0.743304854  0.770531289
     0.198215273  0.726185756  0.784743968
     0.727726418  0.754908921  0.705251584
     0.257756937  0.737668518  0.791690562
     0.230305048  0.252562655  0.701856299
     0.763258171  0.245044505  0.769173349
     0.261181115  0.260900023  0.773115800
     0.732956327  0.256658642  0.700281405
     0.758937061  0.767605873  0.762914709
     0.225545565  0.746525072  0.737941990
     0.698677973  0.707740673  0.596384766
     0.291628113  0.697122914  0.906193274
     0.199273294  0.210638733  0.569959622
     0.792367053  0.198617036  0.872620084
     0.293036949  0.303252326  0.896599222
     0.703363425  0.302935627  0.598900158
     0.790270358  0.814829291  0.851670152
     0.195386482  0.786503268  0.594846535
     0.616777229  0.731632398  0.497750834
     0.371652635  0.735043263  0.973441504
     0.120406493  0.242275167  0.472711694
     0.870642101  0.227953033  0.014903875
     0.371969307  0.271164331  0.985718376
     0.625032212  0.271412115  0.456789061
     0.867289676  0.783683029  0.977870562
     0.105831780  0.773558368  0.655525557
     0.500709021  0.594268968  0.790786091
     0.996495686  0.099421656  0.726640951
     0.496057825  0.405787217  0.743197957
     0.003573605  0.910445837  0.755463596
     0.497735123  0.519863047  0.758560051
     0.002501721  0.024882554  0.750349848
     0.497143441  0.481072425  0.753692453
     0.003557463  0.986089411  0.754037034
     0.554318813  0.629653361  0.064890270
     0.559036445  0.595138901  0.142494522
     0.587735691  0.590538878  0.226139370
     0.612801881  0.617921157  0.211049723
     0.608314213  0.650339054  0.119979632
     0.578317979  0.655923186  0.051375460
     0.391761583  0.608191966  0.319981916
     0.397398599  0.643388213  0.384452348
     0.429850689  0.652310452  0.408785822
     0.454771890  0.628745645  0.344538610
     0.448501569  0.592592340  0.293246894
     0.416045245  0.583334327  0.283777243
     0.089849422  0.082043008  0.232751444
     0.057738054  0.091146814  0.212508594
     0.052531240  0.125592253  0.146632656
     0.077770572  0.149623901  0.093175359
     0.109801855  0.141216562  0.128547753
     0.114398559  0.106443325  0.195749012
     0.947599982  0.127656355  0.445275279
     0.944659791  0.092668962  0.365174531
     0.915683806  0.085567243  0.284516192
     0.889680095  0.111728486  0.298094759
     0.892467069  0.145044122  0.391336423
     0.922427584  0.152872945  0.461118027
     0.421310773  0.338927976  0.460739901
     0.391760071  0.347715395  0.389316728
     0.390494152  0.380871944  0.299839818
     0.418475649  0.404464256  0.279543164
     0.447503302  0.395179550  0.352697265
     0.448025873  0.362203196  0.443068109
     0.617525789  0.376327806  0.223808953
     0.618276613  0.346874302  0.110409532
     0.590245590  0.340570667  0.010016109
     0.562631138  0.366227279  0.037694326
     0.562555485  0.393890372  0.165398312
     0.590227614  0.398082181  0.256147423
     0.946007363  0.858930864  0.448859295
     0.946680258  0.892177712  0.359176350
     0.918565410  0.902542166  0.279044140
     0.889670663  0.880714310  0.297387167
     0.889543164  0.847681614  0.388949162
     0.918363718  0.837030077  0.461834533
     0.119888105  0.893832580  0.264870871
     0.123933380  0.859647640  0.175470903
     0.098009883  0.846606796  0.079763586
     0.066941686  0.865075106  0.089053926
     0.063139278  0.897218574  0.190031443
     0.090297660  0.911417041  0.270017148
     0.587456266  0.591912570  0.754944744
     0.556144123  0.599345518  0.704497191
     0.550907436  0.632533296  0.626410773
     0.577216419  0.654548815  0.561407207
     0.607446352  0.650414890  0.638432912
     0.611432686  0.618405924  0.734976344
     0.388162871  0.618234438  0.773087114
     0.388788627  0.652103012  0.860125813
     0.417658640  0.662044380  0.937665168
     0.446394207  0.640306238  0.904243287
     0.443714665  0.604664715  0.826206845
     0.413995726  0.595228778  0.759105139
     0.084464569  0.103723464  0.729732889
     0.054100970  0.110812622  0.665358354
     0.050108235  0.144638916  0.577718403
     0.077822685  0.168053437  0.548707211
     0.107105185  0.160231643  0.622031462
     0.109657966  0.127566300  0.709788385
     0.884776214  0.113359506  0.767043638
     0.885582175  0.146715341  0.860918181
     0.914318744  0.155409818  0.943602906
     0.943226049  0.135034043  0.899332980
     0.941383670  0.101384471  0.812245330
     0.911453252  0.090222298  0.750690335
     0.410735976  0.409354945  0.748532557
     0.439858153  0.400678637  0.824298068
     0.441000336  0.367723252  0.912615704
     0.413186312  0.345045307  0.934461092
     0.385059972  0.353043819  0.848484793
     0.384390518  0.385732288  0.755972847
     0.583009827  0.408411556  0.715119262
     0.552896910  0.399765495  0.654481752
     0.550334569  0.365382523  0.569289598
     0.579468229  0.343721045  0.521801481
     0.609103977  0.352958283  0.597164702
     0.609468617  0.385690705  0.691692348
     0.888744848  0.897128255  0.744311803
     0.887248935  0.862791616  0.827485418
     0.914634469  0.852131830  0.912881556
     0.944093566  0.873421495  0.903904814
     0.945266912  0.906647032  0.816496086
     0.916787570  0.918183655  0.743353027
     0.078740630  0.845158459  0.553418767
     0.109866943  0.851156456  0.614934899
     0.115552805  0.883948667  0.707313884
     0.090211685  0.910843442  0.735404693
     0.060111406  0.904744381  0.667722093
     0.055311695  0.871619516  0.577846467
     0.726188645  0.718206960  0.128563981
     0.280583616  0.715180385  0.366528853
     0.231940083  0.205802054  0.146709028
     0.772257463  0.205744588  0.338707847
     0.268672908  0.285697737  0.328190388
     0.737517972  0.284175992  0.155396281
     0.764025358  0.794384370  0.332274332
     0.247357333  0.794062076  0.179114950
     0.601355303  0.752748016  0.429957939
     0.385111943  0.760766120  0.021738494
     0.108915304  0.266853844  0.407224687
     0.882606457  0.251345643  0.091631969
     0.383867625  0.246974266  0.056533771
     0.612079207  0.247965067  0.385392227
     0.875611377  0.759587202  0.064195564
     0.078768650  0.767902788  0.696522203
     0.726630578  0.720646036  0.643034346
     0.262177493  0.705423629  0.863593507
     0.227558485  0.219721849  0.626405219
     0.764909422  0.210337990  0.817636058
     0.264544630  0.294093929  0.843972956
     0.730880623  0.291544822  0.655020513
     0.761773565  0.802761743  0.808773659
     0.223827849  0.775888053  0.639886036
     0.594910325  0.745765655  0.927646227
     0.404030933  0.751509730  0.581700560
     0.108629226  0.245449882  0.925253740
     0.899798379  0.241161573  0.596634086
     0.397163810  0.250756438  0.559401876
     0.617062554  0.241125053  0.900325531
     0.889353332  0.749495866  0.563022072
     0.112229514  0.757467644  0.202533246
     0.592079605  0.563296145  0.330633695
     0.638498424  0.613105625  0.298651262
     0.440601697  0.684838013  0.464759515
     0.484191283  0.647143849  0.337424982
     0.022598317  0.140382965  0.134167404
     0.066738308  0.180797721  0.033786820
     0.911581780  0.057198566  0.182110814
     0.864401217  0.104700431  0.208845892
     0.365051880  0.389621500  0.216904557
     0.416094431  0.432464540  0.179076018
     0.587790668  0.315379900  0.904083181
     0.538800746  0.360483387  0.943354998
     0.917753173  0.930582698  0.177931438
     0.864842506  0.890878893  0.213882238
     0.101007131  0.818780346  0.976063313
     0.044565748  0.850533991  0.000216527
     0.522186712  0.642920918  0.573129036
     0.571450782  0.675592630  0.436631805
     0.419206560  0.688784494  0.048797656
     0.472446666  0.652823125  0.978178042
     0.024095389  0.154403241  0.496902129
     0.075282496  0.194960482  0.444712348
     0.915754765  0.180351367  0.062411903
     0.970086848  0.147785054  0.966269820
     0.466259596  0.355565363  0.993420618
     0.414430484  0.317738990  0.035535189
     0.523965395  0.350641115  0.521304321
     0.575613206  0.316932423  0.417864134
     0.913959825  0.823514058  0.008667186
     0.967693165  0.861378060  0.991079243
     0.142130741  0.889170918  0.787866004
     0.096498852  0.938432427  0.839338132
     0.618854019  0.587283794  0.485974156
     0.475071828  0.655785162  0.601093284
     0.030665703  0.153661662  0.893102391
     0.885852049  0.080136060  0.018889204
     0.386305040  0.412370925  0.024960482
     0.505520496  0.327252719  0.987103106
     0.886941726  0.913809064  0.022716071
     0.065386080  0.817580505  0.828802704
     0.533814389  0.650127129  0.328353994
     0.455846005  0.682216798  0.185812451
     0.043436834  0.180268555  0.289118013
     0.949751296  0.159572945  0.190769125
     0.448322891  0.323352499  0.194179234
     0.530853818  0.312423086  0.336671993
     0.944536304  0.836262748  0.174245654
     0.122503381  0.912291097  0.991025449

  ion indices of the primitive-cell ions
   primitive index   ion index
                 1           1
                 2           2
                 3           3
                 4           4
                 5           5
                 6           6
                 7           7
                 8           8
                 9           9
                10          10
                11          11
                12          12
                13          13
                14          14
                15          15
                16          16
                17          17
                18          18
                19          19
                20          20
                21          21
                22          22
                23          23
                24          24
                25          25
                26          26
                27          27
                28          28
                29          29
                30          30
                31          31
                32          32
                33          33
                34          34
                35          35
                36          36
                37          37
                38          38
                39          39
                40          40
                41          41
                42          42
                43          43
                44          44
                45          45
                46          46
                47          47
                48          48
                49          49
                50          50
                51          51
                52          52
                53          53
                54          54
                55          55
                56          56
                57          57
                58          58
                59          59
                60          60
                61          61
                62          62
                63          63
                64          64
                65          65
                66          66
                67          67
                68          68
                69          69
                70          70
                71          71
                72          72
                73          73
                74          74
                75          75
                76          76
                77          77
                78          78
                79          79
                80          80
                81          81
                82          82
                83          83
                84          84
                85          85
                86          86
                87          87
                88          88
                89          89
                90          90
                91          91
                92          92
                93          93
                94          94
                95          95
                96          96
                97          97
                98          98
                99          99
               100         100
               101         101
[...]
    299     -11.1019      2.00000
    300     -11.0788      2.00000
    301     -11.0614      2.00000
    302     -11.0152      2.00000
    303     -10.9987      2.00000
    304     -10.9917      2.00000
    305     -10.9885      2.00000
    306     -10.9693      2.00000
    307     -10.9607      2.00000
    308     -10.9415      2.00000
    309     -10.9064      2.00000
    310     -10.8892      2.00000
    311     -10.8733      2.00000
    312     -10.8668      2.00000
    313     -10.8602      2.00000
    314     -10.8424      2.00000
    315     -10.8337      2.00000
    316     -10.8027      2.00000
    317     -10.7881      2.00000
    318     -10.7678      2.00000
    319     -10.7583      2.00000
    320     -10.7453      2.00000
    321     -10.7262      2.00000
    322     -10.7194      2.00000
    323     -10.6815      2.00000
    324     -10.6752      2.00000
    325     -10.6597      2.00000
    326     -10.6342      2.00000
    327     -10.6263      2.00000
    328     -10.6092      2.00000
    329     -10.5984      2.00000
    330     -10.5858      2.00000
    331     -10.5770      2.00000
    332     -10.5517      2.00000
    333     -10.5261      2.00000
    334     -10.4922      2.00000
    335     -10.4779      2.00000
    336     -10.4571      2.00000
    337     -10.4200      2.00000
    338     -10.4184      2.00000
    339     -10.4100      2.00000
    340     -10.3728      2.00000
    341     -10.3524      2.00000
    342     -10.3249      2.00000
    343     -10.3071      2.00000
    344     -10.2897      2.00000
    345     -10.2788      2.00000
    346     -10.2670      2.00000
    347     -10.2122      2.00000
    348     -10.1900      2.00000
    349     -10.1723      2.00000
    350     -10.1032      2.00000
    351     -10.0919      2.00000
    352     -10.0658      2.00000
    353     -10.0461      2.00000
    354     -10.0023      2.00000
    355      -9.9876      2.00000
    356      -9.9798      2.00000
    357      -9.9492      2.00000
    358      -9.9337      2.00000
    359      -9.9263      2.00000
    360      -9.9015      2.00000
    361      -9.8921      2.00000
    362      -9.8804      2.00000
    363      -9.8576      2.00000
    364      -9.8403      2.00000
    365      -9.8353      2.00000
    366      -9.8124      2.00000
    367      -9.7904      2.00000
    368      -9.7732      2.00000
    369      -9.7570      2.00000
    370      -9.7372      2.00000
    371      -9.7289      2.00000
    372      -9.7043      2.00000
    373      -9.6949      2.00000
    374      -9.6648      2.00000
    375      -9.6211      2.00000
    376      -9.6053      2.00000
    377      -9.5927      2.00000
    378      -9.5816      2.00000
    379      -9.5577      2.00000
    380      -9.5319      2.00000
    381      -9.5124      2.00000
    382      -9.4784      2.00000
    383      -9.4638      2.00000
    384      -9.4567      2.00000
    385      -9.4458      2.00000
    386      -9.3851      2.00000
    387      -9.3724      2.00000
    388      -9.3664      2.00000
    389      -9.3590      2.00000
    390      -9.3277      2.00000
    391      -9.3064      2.00000
    392      -9.2888      2.00000
    393      -9.2686      2.00000
    394      -9.2494      2.00000
    395      -9.2378      2.00000
    396      -9.2263      2.00000
    397      -9.2128      2.00000
    398      -9.1862      2.00000
    399      -9.1720      2.00000
    400      -9.1689      2.00000
    401      -9.1409      2.00000
    402      -9.1259      2.00000
    403      -9.1099      2.00000
    404      -9.1004      2.00000
    405      -9.0849      2.00000
    406      -9.0756      2.00000
    407      -9.0658      2.00000
    408      -9.0508      2.00000
    409      -9.0489      2.00000
    410      -9.0191      2.00000
    411      -9.0095      2.00000
    412      -8.9890      2.00000
    413      -8.9589      2.00000
    414      -8.9427      2.00000
    415      -8.9293      2.00000
    416      -8.9193      2.00000
    417      -8.9002      2.00000
    418      -8.8777      2.00000
    419      -8.8582      2.00000
    420      -8.8485      2.00000
    421      -8.8412      2.00000
    422      -8.8312      2.00000
    423      -8.8052      2.00000
    424      -8.7865      2.00000
    425      -8.7838      2.00000
    426      -8.7789      2.00000
    427      -8.7674      2.00000
    428      -8.7609      2.00000
    429      -8.7405      2.00000
    430      -8.7318      2.00000
    431      -8.7139      2.00000
    432      -8.6882      2.00000
    433      -8.6828      2.00000
    434      -8.6754      2.00000
    435      -8.6681      2.00000
    436      -8.6461      2.00000
    437      -8.6338      2.00000
    438      -8.6151      2.00000
    439      -8.6034      2.00000
    440      -8.5768      2.00000
    441      -8.5682      2.00000
    442      -8.5624      2.00000
    443      -8.5582      2.00000
    444      -8.5328      2.00000
    445      -8.5183      2.00000
    446      -8.5121      2.00000
    447      -8.5061      2.00000
    448      -8.4924      2.00000
    449      -8.4881      2.00000
    450      -8.4850      2.00000
    451      -8.4758      2.00000
    452      -8.4686      2.00000
    453      -8.4497      2.00000
    454      -8.4460      2.00000
    455      -8.4291      2.00000
    456      -8.4207      2.00000
    457      -8.4138      2.00000
    458      -8.4069      2.00000
    459      -8.3979      2.00000
    460      -8.3858      2.00000
    461      -8.3788      2.00000
    462      -8.3665      2.00000
    463      -8.3566      2.00000
    464      -8.3515      2.00000
    465      -8.3320      2.00000
    466      -8.3125      2.00000
    467      -8.2948      2.00000
    468      -8.2843      2.00000
    469      -8.2726      2.00000
    470      -8.2685      2.00000
    471      -8.2622      2.00000
    472      -8.2429      2.00000
    473      -8.2271      2.00000
    474      -8.2175      2.00000
    475      -8.2096      2.00000
    476      -8.1997      2.00000
    477      -8.1944      2.00000
    478      -8.1586      2.00000
    479      -8.1566      2.00000
    480      -8.1453      2.00000
    481      -8.1241      2.00000
    482      -8.1185      2.00000
    483      -8.0859      2.00000
    484      -8.0795      2.00000
    485      -8.0682      2.00000
    486      -8.0526      2.00000
    487      -8.0412      2.00000
    488      -8.0320      2.00000
    489      -8.0061      2.00000
    490      -7.9994      2.00000
    491      -7.9824      2.00000
    492      -7.9572      2.00000
    493      -7.9441      2.00000
    494      -7.9220      2.00000
    495      -7.9062      2.00000
    496      -7.8862      2.00000
    497      -7.8712      2.00000
    498      -7.8557      2.00000
    499      -7.8313      2.00000
    500      -7.8202      2.00000
    501      -7.8048      2.00000
    502      -7.7971      2.00000
    503      -7.7809      2.00000
    504      -7.7673      2.00000
    505      -7.7562      2.00000
    506      -7.7463      2.00000
    507      -7.7234      2.00000
    508      -7.7020      2.00000
    509      -7.6919      2.00000
    510      -7.6795      2.00000
    511      -7.6667      2.00000
    512      -7.6555      2.00000
    513      -7.6405      2.00000
    514      -7.6302      2.00000
    515      -7.6241      2.00000
    516      -7.6165      2.00000
    517      -7.6060      2.00000
    518      -7.6023      2.00000
    519      -7.5971      2.00000
    520      -7.5871      2.00000
    521      -7.5852      2.00000
    522      -7.5743      2.00000
    523      -7.5726      2.00000
    524      -7.5671      2.00000
    525      -7.5580      2.00000
    526      -7.5433      2.00000
    527      -7.5377      2.00000
    528      -7.5160      2.00000
    529      -7.5072      2.00000
    530      -7.4834      2.00000
    531      -7.4745      2.00000
    532      -7.4667      2.00000
    533      -7.4533      2.00000
    534      -7.4503      2.00000
    535      -7.4222      2.00000
    536      -7.4182      2.00000
    537      -7.4044      2.00000
    538      -7.3920      2.00000
    539      -7.3860      2.00000
    540      -7.3751      2.00000
    541      -7.3624      2.00000
    542      -7.3476      2.00000
    543      -7.3387      2.00000
    544      -7.3262      2.00000
    545      -7.3231      2.00000
    546      -7.3165      2.00000
    547      -7.2954      2.00000
    548      -7.2918      2.00000
    549      -7.2856      2.00000
    550      -7.2704      2.00000
    551      -7.2564      2.00000
    552      -7.2483      2.00000
    553      -7.2268      2.00000
    554      -7.2209      2.00000
    555      -7.2156      2.00000
    556      -7.1923      2.00000
    557      -7.1824      2.00000
    558      -7.1786      2.00000
    559      -7.1655      2.00000
    560      -7.1626      2.00000
    561      -7.1608      2.00000
    562      -7.1546      2.00000
    563      -7.1506      2.00000
    564      -7.1453      2.00000
    565      -7.1378      2.00000
    566      -7.1286      2.00000
    567      -7.1268      2.00000
    568      -7.0987      2.00000
    569      -7.0883      2.00000
    570      -7.0664      2.00000
    571      -7.0622      2.00000
    572      -7.0551      2.00000
    573      -7.0536      2.00000
    574      -7.0302      2.00000
    575      -7.0252      2.00000
    576      -6.9946      2.00000
    577      -6.9929      2.00000
    578      -6.9818      2.00000
    579      -6.9797      2.00000
    580      -6.9711      2.00000
    581      -6.9652      2.00000
    582      -6.9548      2.00000
    583      -6.9446      2.00000
    584      -6.9419      2.00000
    585      -6.9194      2.00000
    586      -6.9136      2.00000
    587      -6.9014      2.00000
    588      -6.8942      2.00000
    589      -6.8804      2.00000
    590      -6.8724      2.00000
    591      -6.8655      2.00000
    592      -6.8556      2.00000
    593      -6.8437      2.00000
    594      -6.8310      2.00000
    595      -6.8079      2.00000
    596      -6.7943      2.00000
    597      -6.7896      2.00000
    598      -6.7886      2.00000
    599      -6.7744      2.00000
    600      -6.7645      2.00000
    601      -6.7289      2.00000
    602      -6.7269      2.00000
    603      -6.7203      2.00000
    604      -6.7112      2.00000
    605      -6.6941      2.00000
    606      -6.6895      2.00000
    607      -6.6864      2.00000
    608      -6.6658      2.00000
    609      -6.6520      2.00000
    610      -6.6382      2.00000
    611      -6.6212      2.00000
    612      -6.6144      2.00000
    613      -6.5944      2.00000
    614      -6.5819      2.00000
    615      -6.5299      2.00000
    616      -6.5266      2.00000
    617      -6.5102      2.00000
    618      -6.5011      2.00000
    619      -6.4853      2.00000
    620      -6.4795      2.00000
    621      -6.4519      2.00000
    622      -6.4226      2.00000
    623      -6.4175      2.00000
    624      -6.4114      2.00000
    625      -6.3990      2.00000
    626      -6.3818      2.00000
    627      -6.3740      2.00000
    628      -6.3630      2.00000
    629      -6.3222      2.00000
    630      -6.3160      2.00000
    631      -6.3090      2.00000
    632      -6.2875      2.00000
    633      -6.2734      2.00000
    634      -6.2686      2.00000
    635      -6.2375      2.00000
    636      -6.2200      2.00000
    637      -6.2083      2.00000
    638      -6.2051      2.00000
    639      -6.1883      2.00000
    640      -6.1811      2.00000
    641      -6.1749      2.00000
    642      -6.1399      2.00000
    643      -6.1341      2.00000
    644      -6.1203      2.00000
    645      -6.1145      2.00000
    646      -6.1035      2.00000
    647      -6.0636      2.00000
    648      -6.0434      2.00000
    649      -6.0114      2.00000
    650      -6.0024      2.00000
    651      -5.9600      2.00000
    652      -5.9388      2.00000
    653      -5.9149      2.00000
    654      -5.9132      2.00000
    655      -5.8874      2.00000
    656      -5.8842      2.00000
    657      -5.8501      2.00000
    658      -5.8457      2.00000
    659      -5.8351      2.00000
    660      -5.8093      2.00000
    661      -5.8006      2.00000
    662      -5.7875      2.00000
    663      -5.7738      2.00000
    664      -5.7657      2.00000
    665      -5.7598      2.00000
    666      -5.7375      2.00000
    667      -5.7131      2.00000
    668      -5.7101      2.00000
    669      -5.7019      2.00000
    670      -5.6890      2.00000
    671      -5.6821      2.00000
    672      -5.6726      2.00000
    673      -5.6633      2.00000
    674      -5.6485      2.00000
    675      -5.6305      2.00000
    676      -5.6288      2.00000
    677      -5.6265      2.00000
    678      -5.6053      2.00000
    679      -5.5835      2.00000
    680      -5.5730      2.00000
    681      -5.5404      2.00000
    682      -5.5205      2.00000
    683      -5.5149      2.00000
    684      -5.4912      2.00000
    685      -5.4642      2.00000
    686      -5.4530      2.00000
    687      -5.4440      2.00000
    688      -5.4353      2.00000
    689      -5.4284      2.00000
    690      -5.4263      2.00000
    691      -5.4010      2.00000
    692      -5.3888      2.00000
    693      -5.3555      2.00000
    694      -5.3492      2.00000
    695      -5.3242      2.00000
    696      -5.2915      2.00000
    697      -5.2844      2.00000
    698      -5.2467      2.00000
    699      -5.2302      2.00000
    700      -5.2020      2.00000
    701      -5.1803      2.00000
    702      -5.1481      2.00000
    703      -5.1432      2.00000
    704      -5.1307      2.00000
    705      -5.1209      2.00000
    706      -5.0908      2.00000
    707      -5.0837      2.00000
    708      -5.0596      2.00000
    709      -5.0467      2.00000
    710      -5.0171      2.00000
    711      -5.0141      2.00000
    712      -4.9980      2.00000
    713      -4.9716      2.00000
    714      -4.9464      2.00000
    715      -4.9361      2.00000
    716      -4.9299      2.00000
    717      -4.9001      2.00000
    718      -4.8650      2.00000
    719      -4.8589      2.00000
    720      -4.8366      2.00000
    721      -4.8205      2.00000
    722      -4.8018      2.00000
    723      -4.7819      2.00000
    724      -4.7667      2.00000
    725      -4.7462      2.00000
    726      -4.7365      2.00000
    727      -4.7166      2.00000
    728      -4.6989      2.00000
    729      -4.6922      2.00000
    730      -4.6762      2.00000
    731      -4.6660      2.00000
    732      -4.6532      2.00000
    733      -4.6375      2.00000
    734      -4.6289      2.00000
    735      -4.6184      2.00000
    736      -4.6113      2.00000
    737      -4.6031      2.00000
    738      -4.5976      2.00000
    739      -4.5700      2.00000
    740      -4.5537      2.00000
    741      -4.5475      2.00000
    742      -4.5334      2.00000
    743      -4.5113      2.00000
    744      -4.5025      2.00000
    745      -4.4970      2.00000
    746      -4.4827      2.00000
    747      -4.4788      2.00000
    748      -4.4683      2.00000
    749      -4.4596      2.00000
    750      -4.4401      2.00000
    751      -4.4320      2.00000
    752      -4.4239      2.00000
    753      -4.4121      2.00000
    754      -4.3908      2.00000
    755      -4.3862      2.00000
    756      -4.3355      2.00000
    757      -4.3160      2.00000
    758      -4.2975      2.00000
    759      -4.2841      2.00000
    760      -4.2620      2.00000
    761      -4.2521      2.00000
    762      -4.2257      2.00000
    763      -4.2219      2.00000
    764      -4.2191      2.00000
    765      -4.1862      2.00000
    766      -4.1583      2.00000
    767      -4.1292      2.00000
    768      -4.1006      2.00000
    769      -4.0808      2.00000
    770      -4.0487      2.00000
    771      -4.0108      2.00000
    772      -4.0042      2.00000
    773      -3.9647      2.00000
    774      -3.9393      2.00000
    775      -3.9233      2.00000
    776      -3.8948      2.00000
    777      -3.8846      2.00000
    778      -3.8817      2.00000
    779      -3.8668      2.00000
    780      -3.8504      2.00000
    781      -3.8241      2.00000
    782      -3.8126      2.00000
    783      -3.7773      2.00000
    784      -3.7624      2.00000
    785      -3.7301      2.00000
    786      -3.7095      2.00000
    787      -3.6868      2.00000
    788      -3.6741      2.00000
    789      -3.6625      2.00000
    790      -3.5959      2.00000
    791      -3.5805      2.00000
    792      -3.5496      2.00000
    793      -3.5380      2.00000
    794      -3.5050      2.00000
    795      -3.4905      2.00000
    796      -3.4851      2.00000
    797      -3.4692      2.00000
    798      -3.4624      2.00000
    799      -3.4556      2.00000
    800      -3.4270      2.00000
    801      -3.4165      2.00000
    802      -3.4097      2.00000
    803      -3.3631      2.00000
    804      -3.3523      2.00000
    805      -3.3140      2.00000
    806      -3.2956      2.00000
    807      -3.2887      2.00000
    808      -3.2663      2.00000
    809      -3.2580      2.00000
    810      -3.2283      2.00000
    811      -3.2065      2.00000
    812      -3.1640      2.00000
    813      -3.1212      2.00000
    814      -3.0709      2.00000
    815      -3.0557      2.00000
    816      -3.0213      2.00000
    817      -2.9932      2.00000
    818      -2.9588      2.00000
    819      -2.9532      2.00000
    820      -2.8804      2.00000
    821      -2.8548      2.00000
    822      -2.8150      2.00000
    823      -2.8018      2.00000
    824      -2.6991      2.00000
    825      -2.6850      2.00000
    826      -2.6366      2.00000
    827      -2.5504      1.99924
    828      -2.5006      1.99219
    829      -2.1266      0.00858
    830      -1.4203      0.00000
    831      -1.3007      0.00000
    832      -1.2061      0.00000
    833      -1.1351      0.00000
    834      -1.1050      0.00000
    835      -1.0150      0.00000
    836      -0.9905      0.00000
    837      -0.9301      0.00000
    838      -0.8701      0.00000
    839      -0.8645      0.00000
    840      -0.8066      0.00000
    841      -0.7511      0.00000
    842      -0.7237      0.00000
    843      -0.6653      0.00000
    844      -0.6311      0.00000
    845      -0.5999      0.00000
    846      -0.5709      0.00000
    847      -0.5323      0.00000
    848      -0.4027      0.00000
    849      -0.3107      0.00000
    850      -0.2699      0.00000
    851      -0.2421      0.00000
    852      -0.2090      0.00000
    853      -0.1736      0.00000
    854      -0.1428      0.00000
    855      -0.1192      0.00000
    856      -0.0462      0.00000
    857      -0.0378      0.00000
    858      -0.0299      0.00000
    859       0.0120      0.00000
    860       0.0396      0.00000
    861       0.0654      0.00000
    862       0.0797      0.00000
    863       0.1074      0.00000
    864       0.1460      0.00000
    865       0.1695      0.00000
    866       0.1849      0.00000
    867       0.1895      0.00000
    868       0.2059      0.00000
    869       0.2205      0.00000
    870       0.2470      0.00000
    871       0.2558      0.00000
    872       0.2700      0.00000
    873       0.2738      0.00000
    874       0.2998      0.00000
    875       0.3256      0.00000
    876       0.3421      0.00000
    877       0.3837      0.00000
    878       0.3966      0.00000
    879       0.4162      0.00000
    880       0.4251      0.00000
    881       0.4397      0.00000
    882       0.4753      0.00000
    883       0.4874      0.00000
    884       0.5354      0.00000
    885       0.5621      0.00000
    886       0.5754      0.00000
    88