<?xml version="1.0" encoding="ISO-8859-1"?>
<modeling>
 <generator>
  <i name="program" type="string">vasp </i>
  <i name="version" type="string">6.4.2  </i>
  <i name="subversion" type="string">20Jul23 (build Aug  7 2024 10:52:41) complex                          parallel </i>
  <i name="platform" type="string">LinuxNV </i>
  <i name="date" type="string">2024 09 05 </i>
  <i name="time" type="string">20:54:49 </i>
 </generator>
 <incar>
  <i type="int" name="IBRION">     2</i>
  <i name="EDIFF">      0.00001000</i>
  <i name="EDIFFG">     -0.02000000</i>
  <i type="int" name="NSW">   100</i>
  <i name="ENCUT">    400.00000000</i>
  <i type="string" name="LREAL">Auto</i>
  <i type="int" name="ISMEAR">     0</i>
  <i name="SIGMA">      0.10000000</i>
  <i type="logical" name="LWAVE"> F  </i>
  <i type="logical" name="LCHARG"> F  </i>
  <i type="string" name="GGA">PE</i>
  <i type="int" name="IVDW">    12</i>
 </incar>
 <primitive_cell>
  <structure name="primitive_cell" >
   <crystal>
    <varray name="basis" >
     <v>      41.90870000       0.00000000       0.00000000 </v>
     <v>      -0.15340312      37.00758206       0.00000000 </v>
     <v>       0.41600143      -0.16529473       7.85548622 </v>
    </varray>
    <i name="volume">  12183.38508631 </i>
    <varray name="rec_basis" >
     <v>       0.02386139       0.00009891      -0.00126154 </v>
     <v>      -0.00000000       0.02702149       0.00056858 </v>
     <v>       0.00000000      -0.00000000       0.12729957 </v>
    </varray>
   </crystal>
   <varray name="positions" >
    <v>       0.58258076       0.52470225       0.08137784 </v>
    <v>       0.43155057       0.52787708       0.44145065 </v>
    <v>       0.07300729       0.02679114       0.06650319 </v>
    <v>       0.92448916       0.02240338       0.44992780 </v>
    <v>       0.43208712       0.46189183       0.45908393 </v>
    <v>       0.58237122       0.45851652       0.09031152 </v>
    <v>       0.92708527       0.95680379       0.45450826 </v>
    <v>       0.07302309       0.96086261       0.04961232 </v>
    <v>       0.65464215       0.66437218       0.18839147 </v>
    <v>       0.35005621       0.65716906       0.33813839 </v>
    <v>       0.15767255       0.15209953       0.17851915 </v>
    <v>       0.84628795       0.15493294       0.31454431 </v>
    <v>       0.34472873       0.34004006       0.31453217 </v>
    <v>       0.66447045       0.33466825       0.18383651 </v>
    <v>       0.84200721       0.84313392       0.31846609 </v>
    <v>       0.17473235       0.85674019       0.20521952 </v>
    <v>       0.65191952       0.78090706       0.18530935 </v>
    <v>       0.35759841       0.77411755       0.33745690 </v>
    <v>       0.15905536       0.27042915       0.15262322 </v>
    <v>       0.84298439       0.27346070       0.37469333 </v>
    <v>       0.34165877       0.22099904       0.31477963 </v>
    <v>       0.66497880       0.21853319       0.13436741 </v>
    <v>       0.83405545       0.72548545       0.31586724 </v>
    <v>       0.17188018       0.73326057       0.22834464 </v>
    <v>       0.70616477       0.80224560       0.27014025 </v>
    <v>       0.30554005       0.79786998       0.24156419 </v>
    <v>       0.21263216       0.29267704       0.23847855 </v>
    <v>       0.79005020       0.29354242       0.27287145 </v>
    <v>       0.28836725       0.19977000       0.21844630 </v>
    <v>       0.71726037       0.19791619       0.24387746 </v>
    <v>       0.78015975       0.70796934       0.21248640 </v>
    <v>       0.22613606       0.70906277       0.28419717 </v>
    <v>       0.69671524       0.68073587       0.01835697 </v>
    <v>       0.30726504       0.67634098       0.47713286 </v>
    <v>       0.20267002       0.16625323       0.05159336 </v>
    <v>       0.80108197       0.16763814       0.43937020 </v>
    <v>       0.29752058       0.32413166       0.43638271 </v>
    <v>       0.70985244       0.32180458       0.04254501 </v>
    <v>       0.79444904       0.83054069       0.44440457 </v>
    <v>       0.21834949       0.83351271       0.09008525 </v>
    <v>       0.49880563       0.61146721       0.12933115 </v>
    <v>       0.00347495       0.11399518       0.34583374 </v>
    <v>       0.50412293       0.36934278       0.25214447 </v>
    <v>       0.00582410       0.86727970       0.26807446 </v>
    <v>       0.57249138       0.53234932       0.56903757 </v>
    <v>       0.42118176       0.53533871       0.92097770 </v>
    <v>       0.07876304       0.04013366       0.58517480 </v>
    <v>       0.92962400       0.03675278       0.95770838 </v>
    <v>       0.42142727       0.46964329       0.93087306 </v>
    <v>       0.57137500       0.46630123       0.55775548 </v>
    <v>       0.93151103       0.97084179       0.96534442 </v>
    <v>       0.08040532       0.97454425       0.59171318 </v>
    <v>       0.65451957       0.66464642       0.69753049 </v>
    <v>       0.34040065       0.65777995       0.80659465 </v>
    <v>       0.15466709       0.17240720       0.67528150 </v>
    <v>       0.83886337       0.15776411       0.78889470 </v>
    <v>       0.33795010       0.34055492       0.78271490 </v>
    <v>       0.65600848       0.34383514       0.66806602 </v>
    <v>       0.84001669       0.85333450       0.74928381 </v>
    <v>       0.15890150       0.83957854       0.62708640 </v>
    <v>       0.65025857       0.78020246       0.67405306 </v>
    <v>       0.33289210       0.77319400       0.79858637 </v>
    <v>       0.15567192       0.28642570       0.66302745 </v>
    <v>       0.83809436       0.27455689       0.85055016 </v>
    <v>       0.33548444       0.22609354       0.81426649 </v>
    <v>       0.65887747       0.22607971       0.61070786 </v>
    <v>       0.83425959       0.73783958       0.82113663 </v>
    <v>       0.14668037       0.72393174       0.78543732 </v>
    <v>       0.70335234       0.80521496       0.75922405 </v>
    <v>       0.27758148       0.78908850       0.71609590 </v>
    <v>       0.20971584       0.30452824       0.76765465 </v>
    <v>       0.78588272       0.29717911       0.74908022 </v>
    <v>       0.28100499       0.20820510       0.71533618 </v>
    <v>       0.71101375       0.20403164       0.71405304 </v>
    <v>       0.78051143       0.71496606       0.73768222 </v>
    <v>       0.20082269       0.70180475       0.85758946 </v>
    <v>       0.69887100       0.68028324       0.54112333 </v>
    <v>       0.29431011       0.67101717       0.96667939 </v>
    <v>       0.19764838       0.18432129       0.50454702 </v>
    <v>       0.79253758       0.17072649       0.91626350 </v>
    <v>       0.29506486       0.32990869       0.95795036 </v>
    <v>       0.70296303       0.33109111       0.55876487 </v>
    <v>       0.79156413       0.84319639       0.89269970 </v>
    <v>       0.19539764       0.80962622       0.51046248 </v>
    <v>       0.50246191       0.62275514       0.82407242 </v>
    <v>       0.99581211       0.12802980       0.69881466 </v>
    <v>       0.49537875       0.37658176       0.73470370 </v>
    <v>       0.00903717       0.88109857       0.76255522 </v>
    <v>       0.53265512       0.63387870       0.99714529 </v>
    <v>       0.57368233       0.68093215       0.98624851 </v>
    <v>       0.36722747       0.60057209       0.29422918 </v>
    <v>       0.41014107       0.55640823       0.23629894 </v>
    <v>       0.09540329       0.05616671       0.28721251 </v>
    <v>       0.13879335       0.09901548       0.22341760 </v>
    <v>       0.96981725       0.13449705       0.50458112 </v>
    <v>       0.92566579       0.17790468       0.53425992 </v>
    <v>       0.42285030       0.31489501       0.53794431 </v>
    <v>       0.46981667       0.35553172       0.50550791 </v>
    <v>       0.63823106       0.38138453       0.29958330 </v>
    <v>       0.59081560       0.41917082       0.35483329 </v>
    <v>       0.96686322       0.85142020       0.51753361 </v>
    <v>       0.91876700       0.81235697       0.53530216 </v>
    <v>       0.13865141       0.90373035       0.34485055 </v>
    <v>       0.08726136       0.93616662       0.34633699 </v>
    <v>       0.59135250       0.56814431       0.83069327 </v>
    <v>       0.63358671       0.61543492       0.80089622 </v>
    <v>       0.36613048       0.61055652       0.71326525 </v>
    <v>       0.41206956       0.56973480       0.68847355 </v>
    <v>       0.08713255       0.07939321       0.80329487 </v>
    <v>       0.13225476       0.12151362       0.76591983 </v>
    <v>       0.86337398       0.10656109       0.69943306 </v>
    <v>       0.91046558       0.06569519       0.67206529 </v>
    <v>       0.41007345       0.43340026       0.67136314 </v>
    <v>       0.36351420       0.39164051       0.68406546 </v>
    <v>       0.58531078       0.43314394       0.79136039 </v>
    <v>       0.63151071       0.39332245       0.75150530 </v>
    <v>       0.86867397       0.90562805       0.67174452 </v>
    <v>       0.91718660       0.94385402       0.67887663 </v>
    <v>       0.07467630       0.82227101       0.46790100 </v>
    <v>       0.03249714       0.86755752       0.51969535 </v>
    <v>       0.53233329       0.56915168       0.16365121 </v>
    <v>       0.47527459       0.56824301       0.25211390 </v>
    <v>       0.02990924       0.06837146       0.25509343 </v>
    <v>       0.97261224       0.06828035       0.34301458 </v>
    <v>       0.47694462       0.41666613       0.31352720 </v>
    <v>       0.53358078       0.41588100       0.20827765 </v>
    <v>       0.97605370       0.91378125       0.32893743 </v>
    <v>       0.03219322       0.91593886       0.22199066 </v>
    <v>       0.53387587       0.53104637       0.18432397 </v>
    <v>       0.47694214       0.53138681       0.29557565 </v>
    <v>       0.02909319       0.03063687       0.22518299 </v>
    <v>       0.97250278       0.02975408       0.33973126 </v>
    <v>       0.47788308       0.45500798       0.32134880 </v>
    <v>       0.53408913       0.45409687       0.20234792 </v>
    <v>       0.97498778       0.95220544       0.33955094 </v>
    <v>       0.03019074       0.95408189       0.21292799 </v>
    <v>       0.56141402       0.51051354       0.13144085 </v>
    <v>       0.45166188       0.51259654       0.38418624 </v>
    <v>       0.05431039       0.01155586       0.13505300 </v>
    <v>       0.94619127       0.00868096       0.40229416 </v>
    <v>       0.45203512       0.47587574       0.39499198 </v>
    <v>       0.56133114       0.47364752       0.13742299 </v>
    <v>       0.94769210       0.97185643       0.40525109 </v>
    <v>       0.05480656       0.97477636       0.12916301 </v>
    <v>       0.63453520       0.67542563       0.12383930 </v>
    <v>       0.37126234       0.66865748       0.39455529 </v>
    <v>       0.13737741       0.16487955       0.12156675 </v>
    <v>       0.86496020       0.16798336       0.38578936 </v>
    <v>       0.36319909       0.32585139       0.37952740 </v>
    <v>       0.64545072       0.32342689       0.10846262 </v>
    <v>       0.85992071       0.82783302       0.38248728 </v>
    <v>       0.15374177       0.84030817       0.17906953 </v>
    <v>       0.63868256       0.71042198       0.07382616 </v>
    <v>       0.36756817       0.70440965       0.44032975 </v>
    <v>       0.14386091       0.19967855       0.07325134 </v>
    <v>       0.85819877       0.20255364       0.44091179 </v>
    <v>       0.35575698       0.29083425       0.41914849 </v>
    <v>       0.65170833       0.28878510       0.04995706 </v>
    <v>       0.85093781       0.79348397       0.42416155 </v>
    <v>       0.15852166       0.80363751       0.16406750 </v>
    <v>       0.66955926       0.72799938       0.10451413 </v>
    <v>       0.33714843       0.72207613       0.40391978 </v>
    <v>       0.17560094       0.21556290       0.10615200 </v>
    <v>       0.82708977       0.21809258       0.40464535 </v>
    <v>       0.32458768       0.27519396       0.37638910 </v>
    <v>       0.68246923       0.27289347       0.09179564 </v>
    <v>       0.81912030       0.78012887       0.38117503 </v>
    <v>       0.19003857       0.78680405       0.17078411 </v>
    <v>       0.67286309       0.76347702       0.16753120 </v>
    <v>       0.33593909       0.75767706       0.34639092 </v>
    <v>       0.17952884       0.25223844       0.15033471 </v>
    <v>       0.82303319       0.25457867       0.36629871 </v>
    <v>       0.32109691       0.23912058       0.32069676 </v>
    <v>       0.68546146       0.23678930       0.13966189 </v>
    <v>       0.81428797       0.74463176       0.32188039 </v>
    <v>       0.19311584       0.75033602       0.21380248 </v>
    <v>       0.70267091       0.77526368       0.21593261 </v>
    <v>       0.30730429       0.77084278       0.29241857 </v>
    <v>       0.20911334       0.26464669       0.19873986 </v>
    <v>       0.79405716       0.26572198       0.30852683 </v>
    <v>       0.29181082       0.22733829       0.26548252 </v>
    <v>       0.71408092       0.22540121       0.20092342 </v>
    <v>       0.78475952       0.73495848       0.26356828 </v>
    <v>       0.22285008       0.73682097       0.24571073 </v>
    <v>       0.72871039       0.75137445       0.20146305 </v>
    <v>       0.28021178       0.74840700       0.29873382 </v>
    <v>       0.23475812       0.24044044       0.20213818 </v>
    <v>       0.76950846       0.24023803       0.28886371 </v>
    <v>       0.26605422       0.25157326       0.26600421 </v>
    <v>       0.73935280       0.25024136       0.21378104 </v>
    <v>       0.76021730       0.76077878       0.26641162 </v>
    <v>       0.24933747       0.76021233       0.23824720 </v>
    <v>       0.69773464       0.70743863       0.08056762 </v>
    <v>       0.30809768       0.70287680       0.41792804 </v>
    <v>       0.20353097       0.19424366       0.09971200 </v>
    <v>       0.79996805       0.19551661       0.39607274 </v>
    <v>       0.29677842       0.29663090       0.38233378 </v>
    <v>       0.71013303       0.29463609       0.09490610 </v>
    <v>       0.79249808       0.80335395       0.38810376 </v>
    <v>       0.21873734       0.80641461       0.14326738 </v>
    <v>       0.61458968       0.73018125       0.99690312 </v>
    <v>       0.38976052       0.72823124       0.51654284 </v>
    <v>       0.12267408       0.22351890       0.99566971 </v>
    <v>       0.88084953       0.22418422       0.52483378 </v>
    <v>       0.37824897       0.26830509       0.49435843 </v>
    <v>       0.63071713       0.26471935       0.96685727 </v>
    <v>       0.87208746       0.76917286       0.49820741 </v>
    <v>       0.13215888       0.77917007       0.17494240 </v>
    <v>       0.50211848       0.58454711       0.17638712 </v>
    <v>       0.00202641       0.08541466       0.31795230 </v>
    <v>       0.50491795       0.39880843       0.25681546 </v>
    <v>       0.00474239       0.89675235       0.27504279 </v>
    <v>       0.50563326       0.51214045       0.24490485 </v>
    <v>       0.00117579       0.01105230       0.28261666 </v>
    <v>       0.50591480       0.47365988       0.25742651 </v>
    <v>       0.00213125       0.97239202       0.27934612 </v>
    <v>       0.52835721       0.57594357       0.73692076 </v>
    <v>       0.47062321       0.57882793       0.81083511 </v>
    <v>       0.02781079       0.08420602       0.69200986 </v>
    <v>       0.97073725       0.08032452       0.78088561 </v>
    <v>       0.46821350       0.42388827       0.79603639 </v>
    <v>       0.52474139       0.42283258       0.69539214 </v>
    <v>       0.97511240       0.92815109       0.79804974 </v>
    <v>       0.03232468       0.92847914       0.70879823 </v>
    <v>       0.52692503       0.53816562       0.70979926 </v>
    <v>       0.46931236       0.54009892       0.80835893 </v>
    <v>       0.03014617       0.04550785       0.69460299 </v>
    <v>       0.97324759       0.04270761       0.80252069 </v>
    <v>       0.46847515       0.46233517       0.80700318 </v>
    <v>       0.52515833       0.46126475       0.69389509 </v>
    <v>       0.97554111       0.96627969       0.81016587 </v>
    <v>       0.03215942       0.96709941       0.70059105 </v>
    <v>       0.55268022       0.51788044       0.63166756 </v>
    <v>       0.44194980       0.52034661       0.86892160 </v>
    <v>       0.05782514       0.02544709       0.63607861 </v>
    <v>       0.94829560       0.02235273       0.88404522 </v>
    <v>       0.44196167       0.48337810       0.87148197 </v>
    <v>       0.55180025       0.48105467       0.62359100 </v>
    <v>       0.94938083       0.98572766       0.88948148 </v>
    <v>       0.05861193       0.98839483       0.63831124 </v>
    <v>       0.63420227       0.67503237       0.63173878 </v>
    <v>       0.35970847       0.67277572       0.86512181 </v>
    <v>       0.13445640       0.18355746       0.61108072 </v>
    <v>       0.85781026       0.16955811       0.86317643 </v>
    <v>       0.35767578       0.32967775       0.85112161 </v>
    <v>       0.63726057       0.33084172       0.59654008 </v>
    <v>       0.85829166       0.84132138       0.82468660 </v>
    <v>       0.13594142       0.82624165       0.61020509 </v>
    <v>       0.63908496       0.70958626       0.57706230 </v>
    <v>       0.35121471       0.70750452       0.91168160 </v>
    <v>       0.14050570       0.21764398       0.55249021 </v>
    <v>       0.85087751       0.20387467       0.92305861 </v>
    <v>       0.35165346       0.29564773       0.91054368 </v>
    <v>       0.64492181       0.29629959       0.54267407 </v>
    <v>       0.84948384       0.80822966       0.88769578 </v>
    <v>       0.13631028       0.78903700       0.62240058 </v>
    <v>       0.66987106       0.72733583       0.61076696 </v>
    <v>       0.31853187       0.71972366       0.88025060 </v>
    <v>       0.17207289       0.23279400       0.58814805 </v>
    <v>       0.82015568       0.21996331       0.88081357 </v>
    <v>       0.31993692       0.28062014       0.87960247 </v>
    <v>       0.67592553       0.28108703       0.58594716 </v>
    <v>       0.81774520       0.79313170       0.85161065 </v>
    <v>       0.16624673       0.77012470       0.64926510 </v>
    <v>       0.67174020       0.76358763       0.66526163 </v>
    <v>       0.31302886       0.75413330       0.81644443 </v>
    <v>       0.17597182       0.26799505       0.65274201 </v>
    <v>       0.81749605       0.25660267       0.84118408 </v>
    <v>       0.31541777       0.24495901       0.82208593 </v>
    <v>       0.67915686       0.24434777       0.62249887 </v>
    <v>       0.81389351       0.75605335       0.81626374 </v>
    <v>       0.16834779       0.73829975       0.74201790 </v>
    <v>       0.70082025       0.77746718       0.71284561 </v>
    <v>       0.28261170       0.76303033       0.77062543 </v>
    <v>       0.20544115       0.27793965       0.71097078 </v>
    <v>       0.78889606       0.26919827       0.78499380 </v>
    <v>       0.28569370       0.23505748       0.76762250 </v>
    <v>       0.70773649       0.23209956       0.68017459 </v>
    <v>       0.78441005       0.74330485       0.77053129 </v>
    <v>       0.19821527       0.72618576       0.78474397 </v>
    <v>       0.72772642       0.75490892       0.70525158 </v>
    <v>       0.25775694       0.73766852       0.79169056 </v>
    <v>       0.23030505       0.25256266       0.70185630 </v>
    <v>       0.76325817       0.24504450       0.76917335 </v>
    <v>       0.26118112       0.26090002       0.77311580 </v>
    <v>       0.73295633       0.25665864       0.70028140 </v>
    <v>       0.75893706       0.76760587       0.76291471 </v>
    <v>       0.22554557       0.74652507       0.73794199 </v>
    <v>       0.69867797       0.70774067       0.59638477 </v>
    <v>       0.29162811       0.69712291       0.90619327 </v>
    <v>       0.19927329       0.21063873       0.56995962 </v>
    <v>       0.79236705       0.19861704       0.87262008 </v>
    <v>       0.29303695       0.30325233       0.89659922 </v>
    <v>       0.70336342       0.30293563       0.59890016 </v>
    <v>       0.79027036       0.81482929       0.85167015 </v>
    <v>       0.19538648       0.78650327       0.59484654 </v>
    <v>       0.61677723       0.73163240       0.49775083 </v>
    <v>       0.37165264       0.73504326       0.97344150 </v>
    <v>       0.12040649       0.24227517       0.47271169 </v>
    <v>       0.87064210       0.22795303       0.01490388 </v>
    <v>       0.37196931       0.27116433       0.98571838 </v>
    <v>       0.62503221       0.27141211       0.45678906 </v>
    <v>       0.86728968       0.78368303       0.97787056 </v>
    <v>       0.10583178       0.77355837       0.65552556 </v>
    <v>       0.50070902       0.59426897       0.79078609 </v>
    <v>       0.99649569       0.09942166       0.72664095 </v>
    <v>       0.49605782       0.40578722       0.74319796 </v>
    <v>       0.00357360       0.91044584       0.75546360 </v>
    <v>       0.49773512       0.51986305       0.75856005 </v>
    <v>       0.00250172       0.02488255       0.75034985 </v>
    <v>       0.49714344       0.48107243       0.75369245 </v>
    <v>       0.00355746       0.98608941       0.75403703 </v>
    <v>       0.55431881       0.62965336       0.06489027 </v>
    <v>       0.55903644       0.59513890       0.14249452 </v>
    <v>       0.58773569       0.59053888       0.22613937 </v>
    <v>       0.61280188       0.61792116       0.21104972 </v>
    <v>       0.60831421       0.65033905       0.11997963 </v>
    <v>       0.57831798       0.65592319       0.05137546 </v>
    <v>       0.39176158       0.60819197       0.31998192 </v>
    <v>       0.39739860       0.64338821       0.38445235 </v>
    <v>       0.42985069       0.65231045       0.40878582 </v>
    <v>       0.45477189       0.62874565       0.34453861 </v>
    <v>       0.44850157       0.59259234       0.29324689 </v>
    <v>       0.41604524       0.58333433       0.28377724 </v>
    <v>       0.08984942       0.08204301       0.23275144 </v>
    <v>       0.05773805       0.09114681       0.21250859 </v>
    <v>       0.05253124       0.12559225       0.14663266 </v>
    <v>       0.07777057       0.14962390       0.09317536 </v>
    <v>       0.10980185       0.14121656       0.12854775 </v>
    <v>       0.11439856       0.10644332       0.19574901 </v>
    <v>       0.94759998       0.12765636       0.44527528 </v>
    <v>       0.94465979       0.09266896       0.36517453 </v>
    <v>       0.91568381       0.08556724       0.28451619 </v>
    <v>       0.88968010       0.11172849       0.29809476 </v>
    <v>       0.89246707       0.14504412       0.39133642 </v>
    <v>       0.92242758       0.15287295       0.46111803 </v>
    <v>       0.42131077       0.33892798       0.46073990 </v>
    <v>       0.39176007       0.34771539       0.38931673 </v>
    <v>       0.39049415       0.38087194       0.29983982 </v>
    <v>       0.41847565       0.40446426       0.27954316 </v>
    <v>       0.44750330       0.39517955       0.35269726 </v>
    <v>       0.44802587       0.36220320       0.44306811 </v>
    <v>       0.61752579       0.37632781       0.22380895 </v>
    <v>       0.61827661       0.34687430       0.11040953 </v>
    <v>       0.59024559       0.34057067       0.01001611 </v>
    <v>       0.56263114       0.36622728       0.03769433 </v>
    <v>       0.56255549       0.39389037       0.16539831 </v>
    <v>       0.59022761       0.39808218       0.25614742 </v>
    <v>       0.94600736       0.85893086       0.44885930 </v>
    <v>       0.94668026       0.89217771       0.35917635 </v>
    <v>       0.91856541       0.90254217       0.27904414 </v>
    <v>       0.88967066       0.88071431       0.29738717 </v>
    <v>       0.88954316       0.84768161       0.38894916 </v>
    <v>       0.91836372       0.83703008       0.46183453 </v>
    <v>       0.11988811       0.89383258       0.26487087 </v>
    <v>       0.12393338       0.85964764       0.17547090 </v>
    <v>       0.09800988       0.84660680       0.07976359 </v>
    <v>       0.06694169       0.86507511       0.08905393 </v>
    <v>       0.06313928       0.89721857       0.19003144 </v>
    <v>       0.09029766       0.91141704       0.27001715 </v>
    <v>       0.58745627       0.59191257       0.75494474 </v>
    <v>       0.55614412       0.59934552       0.70449719 </v>
    <v>       0.55090744       0.63253330       0.62641077 </v>
    <v>       0.57721642       0.65454882       0.56140721 </v>
    <v>       0.60744635       0.65041489       0.63843291 </v>
    <v>       0.61143269       0.61840592       0.73497634 </v>
    <v>       0.38816287       0.61823444       0.77308711 </v>
    <v>       0.38878863       0.65210301       0.86012581 </v>
    <v>       0.41765864       0.66204438       0.93766517 </v>
    <v>       0.44639421       0.64030624       0.90424329 </v>
    <v>       0.44371466       0.60466471       0.82620684 </v>
    <v>       0.41399573       0.59522878       0.75910514 </v>
    <v>       0.08446457       0.10372346       0.72973289 </v>
    <v>       0.05410097       0.11081262       0.66535835 </v>
    <v>       0.05010824       0.14463892       0.57771840 </v>
    <v>       0.07782269       0.16805344       0.54870721 </v>
    <v>       0.10710519       0.16023164       0.62203146 </v>
    <v>       0.10965797       0.12756630       0.70978838 </v>
    <v>       0.88477621       0.11335951       0.76704364 </v>
    <v>       0.88558217       0.14671534       0.86091818 </v>
    <v>       0.91431874       0.15540982       0.94360291 </v>
    <v>       0.94322605       0.13503404       0.89933298 </v>
    <v>       0.94138367       0.10138447       0.81224533 </v>
    <v>       0.91145325       0.09022230       0.75069033 </v>
    <v>       0.41073598       0.40935494       0.74853256 </v>
    <v>       0.43985815       0.40067864       0.82429807 </v>
    <v>       0.44100034       0.36772325       0.91261570 </v>
    <v>       0.41318631       0.34504531       0.93446109 </v>
    <v>       0.38505997       0.35304382       0.84848479 </v>
    <v>       0.38439052       0.38573229       0.75597285 </v>
    <v>       0.58300983       0.40841156       0.71511926 </v>
    <v>       0.55289691       0.39976549       0.65448175 </v>
    <v>       0.55033457       0.36538252       0.56928960 </v>
    <v>       0.57946823       0.34372104       0.52180148 </v>
    <v>       0.60910398       0.35295828       0.59716470 </v>
    <v>       0.60946862       0.38569070       0.69169235 </v>
    <v>       0.88874485       0.89712825       0.74431180 </v>
    <v>       0.88724894       0.86279162       0.82748542 </v>
    <v>       0.91463447       0.85213183       0.91288156 </v>
    <v>       0.94409357       0.87342150       0.90390481 </v>
    <v>       0.94526691       0.90664703       0.81649609 </v>
    <v>       0.91678757       0.91818366       0.74335303 </v>
    <v>       0.07874063       0.84515846       0.55341877 </v>
    <v>       0.10986694       0.85115646       0.61493490 </v>
    <v>       0.11555281       0.88394867       0.70731388 </v>
    <v>       0.09021168       0.91084344       0.73540469 </v>
    <v>       0.06011141       0.90474438       0.66772209 </v>
    <v>       0.05531170       0.87161952       0.57784647 </v>
    <v>       0.72618865       0.71820696       0.12856398 </v>
    <v>       0.28058362       0.71518039       0.36652885 </v>
    <v>       0.23194008       0.20580205       0.14670903 </v>
    <v>       0.77225746       0.20574459       0.33870785 </v>
    <v>       0.26867291       0.28569774       0.32819039 </v>
    <v>       0.73751797       0.28417599       0.15539628 </v>
    <v>       0.76402536       0.79438437       0.33227433 </v>
    <v>       0.24735733       0.79406208       0.17911495 </v>
    <v>       0.60135530       0.75274802       0.42995794 </v>
    <v>       0.38511194       0.76076612       0.02173849 </v>
    <v>       0.10891530       0.26685384       0.40722469 </v>
    <v>       0.88260646       0.25134564       0.09163197 </v>
    <v>       0.38386762       0.24697427       0.05653377 </v>
    <v>       0.61207921       0.24796507       0.38539223 </v>
    <v>       0.87561138       0.75958720       0.06419556 </v>
    <v>       0.07876865       0.76790279       0.69652220 </v>
    <v>       0.72663058       0.72064604       0.64303435 </v>
    <v>       0.26217749       0.70542363       0.86359351 </v>
    <v>       0.22755849       0.21972185       0.62640522 </v>
    <v>       0.76490942       0.21033799       0.81763606 </v>
    <v>       0.26454463       0.29409393       0.84397296 </v>
    <v>       0.73088062       0.29154482       0.65502051 </v>
    <v>       0.76177356       0.80276174       0.80877366 </v>
    <v>       0.22382785       0.77588805       0.63988604 </v>
    <v>       0.59491033       0.74576565       0.92764623 </v>
    <v>       0.40403093       0.75150973       0.58170056 </v>
    <v>       0.10862923       0.24544988       0.92525374 </v>
    <v>       0.89979838       0.24116157       0.59663409 </v>
    <v>       0.39716381       0.25075644       0.55940188 </v>
    <v>       0.61706255       0.24112505       0.90032553 </v>
    <v>       0.88935333       0.74949587       0.56302207 </v>
    <v>       0.11222951       0.75746764       0.20253325 </v>
    <v>       0.59207961       0.56329614       0.33063369 </v>
    <v>       0.63849842       0.61310562       0.29865126 </v>
    <v>       0.44060170       0.68483801       0.46475951 </v>
    <v>       0.48419128       0.64714385       0.33742498 </v>
    <v>       0.02259832       0.14038296       0.13416740 </v>
    <v>       0.06673831       0.18079772       0.03378682 </v>
    <v>       0.91158178       0.05719857       0.18211081 </v>
    <v>       0.86440122       0.10470043       0.20884589 </v>
    <v>       0.36505188       0.38962150       0.21690456 </v>
    <v>       0.41609443       0.43246454       0.17907602 </v>
    <v>       0.58779067       0.31537990       0.90408318 </v>
    <v>       0.53880075       0.36048339       0.94335500 </v>
    <v>       0.91775317       0.93058270       0.17793144 </v>
    <v>       0.86484251       0.89087889       0.21388224 </v>
    <v>       0.10100713       0.81878035       0.97606331 </v>
    <v>       0.04456575       0.85053399       0.00021653 </v>
    <v>       0.52218671       0.64292092       0.57312904 </v>
    <v>       0.57145078       0.67559263       0.43663181 </v>
    <v>       0.41920656       0.68878449       0.04879766 </v>
    <v>       0.47244667       0.65282313       0.97817804 </v>
    <v>       0.02409539       0.15440324       0.49690213 </v>
    <v>       0.07528250       0.19496048       0.44471235 </v>
    <v>       0.91575476       0.18035137       0.06241190 </v>
    <v>       0.97008685       0.14778505       0.96626982 </v>
    <v>       0.46625960       0.35556536       0.99342062 </v>
    <v>       0.41443048       0.31773899       0.03553519 </v>
    <v>       0.52396539       0.35064111       0.52130432 </v>
    <v>       0.57561321       0.31693242       0.41786413 </v>
    <v>       0.91395982       0.82351406       0.00866719 </v>
    <v>       0.96769316       0.86137806       0.99107924 </v>
    <v>       0.14213074       0.88917092       0.78786600 </v>
    <v>       0.09649885       0.93843243       0.83933813 </v>
    <v>       0.61885402       0.58728379       0.48597416 </v>
    <v>       0.47507183       0.65578516       0.60109328 </v>
    <v>       0.03066570       0.15366166       0.89310239 </v>
    <v>       0.88585205       0.08013606       0.01888920 </v>
    <v>       0.38630504       0.41237092       0.02496048 </v>
    <v>       0.50552050       0.32725272       0.98710311 </v>
    <v>       0.88694173       0.91380906       0.02271607 </v>
    <v>       0.06538608       0.81758051       0.82880270 </v>
    <v>       0.53381439       0.65012713       0.32835399 </v>
    <v>       0.45584600       0.68221680       0.18581245 </v>
    <v>       0.04343683       0.18026856       0.28911801 </v>
    <v>       0.94975130       0.15957294       0.19076913 </v>
    <v>       0.44832289       0.32335250       0.19417923 </v>
    <v>       0.53085382       0.31242309       0.33667199 </v>
    <v>       0.94453630       0.83626275       0.17424565 </v>
    <v>       0.12250338       0.91229110       0.99102545 </v>
   </varray>
  </structure>
  <varray name="primitive_index" >
   <v type="int" >        1 </v>
   <v type="int" >        2 </v>
   <v type="int" >        3 </v>
   <v type="int" >        4 </v>
   <v type="int" >        5 </v>
   <v type="int" >        6 </v>
   <v type="int" >        7 </v>
   <v type="int" >        8 </v>
   <v type="int" >        9 </v>
   <v type="int" >       10 </v>
   <v type="int" >       11 </v>
   <v type="int" >       12 </v>
   <v type="int" >       13 </v>
   <v type="int" >       14 </v>
   <v type="int" >       15 </v>
   <v type="int" >       16 </v>
   <v type="int" >       17 </v>
   <v type="int" >       18 </v>
   <v type="int" >       19 </v>
   <v type="int" >       20 </v>
   <v type="int" >       21 </v>
   <v type="int" >       22 </v>
   <v type="int" >       23 </v>
   <v type="int" >       24 </v>
   <v type="int" >       25 </v>
   <v type="int" >       26 </v>
   <v type="int" >       27 </v>
   <v type="int" >       28 </v>
   <v type="int" >       29 </v>
   <v type="int" >       30 </v>
   <v type="int" >       31 </v>
   <v type="int" >       32 </v>
   <v type="int" >       33 </v>
   <v type="int" >       34 </v>
   <v type="int" >       35 </v>
   <v type="int" >       36 </v>
   <v type="int" >       37 </v>
   <v type="int" >       38 </v>
   <v type="int" >       39 </v>
   <v type="int" >       40 </v>
   <v type="int" >       41 </v>
   <v type="int" >       42 </v>
   <v type="int" >       43 </v>
   <v type="int" >       44 </v>
   <v type="int" >       45 </v>
   <v type="int" >       46 </v>
   <v type="int" >       47 </v>
   <v type="int" >       48 </v>
   <v type="int" >       49 </v>
   <v type="int" >       50 </v>
   <v type="int" >       51 </v>
   <v type="int" >       52 </v>
   <v type="int" >       53 </v>
   <v type="int" >       54 </v>
   <v type="int" >       55 </v>
   <v type="int" >       56 </v>
   <v type="int" >       57 </v>
   <v type="int" >       58 </v>
   <v type="int" >       59 </v>
   <v type="int" >       60 </v>
   <v type="int" >       61 </v>
   <v type="int" >       62 </v>
   <v type="int" >       63 </v>
   <v type="int" >       64 </v>
   <v type="int" >       65 </v>
   <v type="int" >       66 </v>
   <v type="int" >       67 </v>
   <v type="int" >       68 </v>
   <v type="int" >       69 </v>
   <v type="int" >       70 </v>
   <v type="int" >       71 </v>
   <v type="int" >       72 </v>
   <v type="int" >       73 </v>
   <v type="int" >       74 </v>
   <v type="int" >       75 </v>
   <v type="int" >       76 </v>
   <v type="int" >       77 </v>
   <v type="int" >       78 </v>
   <v type="int" >       79 </v>
   <v type="int" >       80 </v>
   <v type="int" >       81 </v>
   <v type="int" >       82 </v>
   <v type="int" >       83 </v>
   <v type="int" >       84 </v>
   <v type="int" >       85 </v>
   <v type="int" >       86 </v>
   <v type="int" >       87 </v>
   <v type="int" >       88 </v>
   <v type="int" >       89 </v>
   <v type="int" >       90 </v>
   <v type="int" >       91 </v>
   <v type="int" >       92 </v>
   <v type="int" >       93 </v>
   <v type="int" >       94 </v>
   <v type="int" >       95 </v>
   <v type="int" >       96 </v>
   <v type="int" >       97 </v>
   <v type="int" >       98 </v>
   <v type="int" >       99 </v>
   <v type="int" >      100 </v>
   <v type="int" >      101 </v>
   <v type="int" >      102 </v>
   <v type="int" >      103 </v>
   <v type="int" >      104 </v>
   <v type="int" >      105 </v>
   <v type="int" >      106 </v>
   <v type="int" >      107 </v>
   <v type="int" >      108 </v>
   <v type="int" >      109 </v>
   <v type="int" >      110 </v>
   <v type="int" >      111 </v>
   <v type="int" >      112 </v>
   <v type="int" >      113 </v>
   <v type="int" >      114 </v>
   <v type="int" >      115 </v>
   <v type="int" >      116 </v>
   <v type="int" >      117 </v>
   <v type="int" >      118 </v>
   <v type="int" >      119 </v>
   <v type="int" >      120 </v>
   <v type="int" >      121 </v>
   <v type="int" >      122 </v>
   <v type="int" >      123 </v>
   <v type="int" >      124 </v>
   <v type="int" >      125 </v>
   <v type="int" >      126 </v>
   <v type="int" >      127 </v>
   <v type="int" >      128 </v>
   <v type="int" >      129 </v>
   <v type="int" >      130 </v>
   <v type="int" >      131 </v>
   <v type="int" >      132 </v>
   <v type="int" >      133 </v>
   <v type="int" >      134 </v>
   <v type="int" >      135 </v>
   <v type="int" >      136 </v>
   <v type="int" >      137 </v>
   <v type="int" >      138 </v>
   <v type="int" >      139 </v>
   <v type="int" >      140 </v>
   <v type="int" >      141 </v>
   <v type="int" >      142 </v>
   <v type="int" >      143 </v>
   <v type="int" >      144 </v>
   <v type="int" >      145 </v>
   <v type="int" >      146 </v>
   <v type="int" >      147 </v>
   <v type="int" >      148 </v>
   <v type="int" >      149 </v>
   <v type="int" >      150 </v>
   <v type="int" >      151 </v>
   <v type="int" >      152 </v>
   <v type="int" >      153 </v>
   <v type="int" >      154 </v>
   <v type="int" >      155 </v>
   <v type="int" >      156 </v>
   <v type="int" >      157 </v>
   <v type="int" >      158 </v>
   <v type="int" >      159 </v>
   <v type="int" >      160 </v>
   <v type="int" >      161 </v>
   <v type="int" >      162 </v>
   <v type="int" >      163 </v>
   <v type="int" >      164 </v>
   <v type="int" >      165 </v>
   <v type="int" >      166 </v>
   <v type="int" >      167 </v>
   <v type="int" >      168 </v>
   <v type="int" >      169 </v>
   <v type="int" >      170 </v>
   <v type="int" >      171 </v>
   <v type="int" >      172 </v>
   <v type="int" >      173 </v>
   <v type="int" >      174 </v>
   <v type="int" >      175 </v>
   <v type="int" >      176 </v>
   <v type="int" >      177 </v>
   <v type="int" >      178 </v>
   <v type="int" >      179 </v>
   <v type="int" >      180 </v>
   <v type="int" >      181 </v>
   <v type="int" >      182 </v>
   <v type="int" >      183 </v>
   <v type="int" >      184 </v>
   <v type="int" >      185 </v>
   <v type="int" >      186 </v>
   <v type="int" >      187 </v>
   <v type="int" >      188 </v>
   <v type="int" >      189 </v>
   <v type="int" >      190 </v>
   <v type="int" >      191 </v>
   <v type="int" >      192 </v>
   <v type="int" >      193 </v>
   <v type="int" >      194 </v>
   <v type="int" >      195 </v>
   <v type="int" >      196 </v>
   <v type="int" >      197 </v>
   <v type="int" >      198 </v>
   <v type="int" >      199 </v>
   <v type="int" >      200 </v>
   <v type="int" >      201 </v>
   <v type="int" >      202 </v>
   <v type="int" >      203 </v>
   <v type="int" >      204 </v>
   <v type="int" >      205 </v>
   <v type="int" >      206 </v>
   <v type="int" >      207 </v>
   <v type="int" >      208 </v>
   <v type="int" >      209 </v>
   <v type="int" >      210 </v>
   <v type="int" >      211 </v>
   <v type="int" >      212 </v>
   <v type="int" >      213 </v>
   <v type="int" >      214 </v>
   <v type="int" >      215 </v>
   <v type="int" >      216 </v>
   <v type="int" >      217 </v>
   <v type="int" >      218 </v>
   <v type="int" >      219 </v>
   <v type="int" >      220 </v>
   <v type="int" >      221 </v>
   <v type="int" >      222 </v>
   <v type="int" >      223 </v>
   <v type="int" >      224 </v>
   <v type="int" >      225 </v>
   <v type="int" >      226 </v>
   <v type="int" >      227 </v>
   <v type="int" >      228 </v>
   <v type="int" >      229 </v>
   <v type="int" >      230 </v>
   <v type="int" >      231 </v>
   <v type="int" >      232 </v>
   <v type="int" >      233 </v>
   <v type="int" >      234 </v>
   <v type="int" >      235 </v>
   <v type="int" >      236 </v>
   <v type="int" >      237 </v>
   <v type="int" >      238 </v>
   <v type="int" >      239 </v>
   <v type="int" >      240 </v>
   <v type="int" >      241 </v>
   <v type="int" >      242 </v>
   <v type="int" >      243 </v>
   <v type="int" >      244 </v>
   <v type="int" >      245 </v>
   <v type="int" >      246 </v>
   <v type="int" >      247 </v>
   <v type="int" >      248 </v>
   <v type="int" >      249 </v>
   <v type="int" >      250 </v>
   <v type="int" >      251 </v>
   <v type="int" >      252 </v>
   <v type="int" >      253 </v>
   <v type="int" >      254 </v>
   <v type="int" >      255 </v>
   <v type="int" >      256 </v>
   <v type="int" >      257 </v>
   <v type="int" >      258 </v>
   <v type="int" >      259 </v>
   <v type="int" >      260 </v>
   <v type="int" >      261 </v>
   <v type="int" >      262 </v>
   <v type="int" >      263 </v>
   <v type="int" >      264 </v>
   <v type="int" >      265 </v>
   <v type="int" >      266 </v>
   <v type="int" >      267 </v>
   <v type="int" >      268 </v>
   <v type="int" >      269 </v>
   <v type="int" >      270 </v>
   <v type="int" >      271 </v>
   <v type="int" >      272 </v>
   <v type="int" >      273 </v>
   <v type="int" >      274 </v>
   <v type="int" >      275 </v>
   <v type="int" >      276 </v>
   <v type="int" >      277 </v>
   <v type="int" >      278 </v>
   <v type="int" >      279 </v>
   <v type="int" >      280 </v>
   <v type="int" >      281 </v>
   <v type="int" >      282 </v>
   <v type="int" >      283 </v>
   <v type="int" >      284 </v>
   <v type="int" >      285 </v>
   <v type="int" >      286 </v>
   <v type="int" >      287 </v>
   <v type="int" >      288 </v>
   <v type="int" >      289 </v>
   <v type="int" >      290 </v>
   <v type="int" >      291 </v>
   <v type="int" >      292 </v>
   <v type="int" >      293 </v>
   <v type="int" >      294 </v>
   <v type="int" >      295 </v>
   <v type="int" >      296 </v>
   <v type="int" >      297 </v>
   <v type="int" >      298 </v>
   <v type="int" >      299 </v>
   <v type="int" >      300 </v>
   <v type="int" >      301 </v>
   <v type="int" >      302 </v>
   <v type="int" >      303 </v>
   <v type="int" >      304 </v>
   <v type="int" >      305 </v>
   <v type="int" >      306 </v>
   <v type="int" >      307 </v>
   <v type="int" >      308 </v>
   <v type="int" >      309 </v>
   <v type="int" >      310 </v>
   <v type="int" >      311 </v>
   <v type="int" >      312 </v>
   <v type="int" >      313 </v>
   <v type="int" >      314 </v>
   <v type="int" >      315 </v>
   <v type="int" >      316 </v>
   <v type="int" >      317 </v>
   <v type="int" >      318 </v>
   <v type="int" >      319 </v>
   <v type="int" >      320 </v>
   <v type="int" >      321 </v>
   <v type="int" >      322 </v>
   <v type="int" >      323 </v>
   <v type="int" >      324 </v>
   <v type="int" >      325 </v>
   <v type="int" >      326 </v>
   <v type="int" >      327 </v>
   <v type="int" >      328 </v>
   <v type="int" >      329 </v>
   <v type="int" >      330 </v>
   <v type="int" >      331 </v>
   <v type="int" >      332 </v>
   <v type="int" >      333 </v>
   <v type="int" >      334 </v>
   <v type="int" >      335 </v>
   <v type="int" >      336 </v>
   <v type="int" >      337 </v>
   <v type="int" >      338 </v>
   <v type="int" >      339 </v>
   <v type="int" >      340 </v>
   <v type="int" >      341 </v>
   <v type="int" >      342 </v>
   <v type="int" >      343 </v>
   <v type="int" >      344 </v>
   <v type="int" >      345 </v>
   <v type="int" >      346 </v>
   <v type="int" >      347 </v>
   <v type="int" >      348 </v>
   <v type="int" >      349 </v>
   <v type="int" >      350 </v>
   <v type="int" >      351 </v>
   <v type="int" >      352 </v>
   <v type="int" >      353 </v>
   <v type="int" >      354 </v>
   <v type="int" >      355 </v>
   <v type="int" >      356 </v>
   <v type="int" >      357 </v>
   <v type="int" >      358 </v>
   <v type="int" >      359 </v>
   <v type="int" >      360 </v>
   <v type="int" >      361 </v>
   <v type="int" >      362 </v>
   <v type="int" >      363 </v>
   <v type="int" >      364 </v>
   <v type="int" >      365 </v>
   <v type="int" >      366 </v>
   <v type="int" >      367 </v>
   <v type="int" >      368 </v>
   <v type="int" >      369 </v>
   <v type="int" >      370 </v>
   <v type="int" >      371 </v>
   <v type="int" >      372 </v>
   <v type="int" >      373 </v>
   <v type="int" >      374 </v>
   <v type="int" >      375 </v>
   <v type="int" >      376 </v>
   <v type="int" >      377 </v>
   <v type="int" >      378 </v>
   <v type="int" >      379 </v>
   <v type="int" >      380 </v>
   <v type="int" >      381 </v>
   <v type="int" >      382 </v>
   <v type="int" >      383 </v>
   <v type="int" >      384 </v>
   <v type="int" >      385 </v>
   <v type="int" >      386 </v>
   <v type="int" >      387 </v>
   <v type="int" >      388 </v>
   <v type="int" >      389 </v>
   <v type="int" >      390 </v>
   <v type="int" >      391 </v>
   <v type="int" >      392 </v>
   <v type="int" >      393 </v>
   <v type="int" >      394 </v>
   <v type="int" >      395 </v>
   <v type="int" >      396 </v>
   <v type="int" >      397 </v>
   <v type="int" >      398 </v>
   <v type="int" >      399 </v>
   <v type="int" >      400 </v>
   <v type="int" >      401 </v>
   <v type="int" >      402 </v>
   <v type="int" >      403 </v>
   <v type="int" >      404 </v>
   <v type="int" >      405 </v>
   <v type="int" >      406 </v>
   <v type="int" >      407 </v>
   <v type="int" >      408 </v>
   <v type="int" >      409 </v>
   <v type="int" >      410 </v>
   <v type="int" >      411 </v>
   <v type="int" >      412 </v>
   <v type="int" >      413 </v>
   <v type="int" >      414 </v>
   <v type="int" >      415 </v>
   <v type="int" >      416 </v>
   <v type="int" >      417 </v>
   <v type="int" >      418 </v>
   <v type="int" >      419 </v>
   <v type="int" >      420 </v>
   <v type="int" >      421 </v>
   <v type="int" >      422 </v>
   <v type="int" >      423 </v>
   <v type="int" >      424 </v>
   <v type="int" >      425 </v>
   <v type="int" >      426 </v>
   <v type="int" >      427 </v>
   <v type="int" >      428 </v>
   <v type="int" >      429 </v>
   <v type="int" >      430 </v>
   <v type="int" >      431 </v>
   <v type="int" >      432 </v>
   <v type="int" >      433 </v>
   <v type="int" >      434 </v>
   <v type="int" >      435 </v>
   <v type="int" >      436 </v>
   <v type="int" >      437 </v>
   <v type="int" >      438 </v>
   <v type="int" >      439 </v>
   <v type="int" >      440 </v>
   <v type="int" >      441 </v>
   <v type="int" >      442 </v>
   <v type="int" >      443 </v>
   <v type="int" >      444 </v>
   <v type="int" >      445 </v>
   <v type="int" >      446 </v>
   <v type="int" >      447 </v>
   <v type="int" >      448 </v>
   <v type="int" >      449 </v>
   <v type="int" >      450 </v>
   <v type="int" >      451 </v>
   <v type="int" >      452 </v>
   <v type="int" >      453 </v>
   <v type="int" >      454 </v>
   <v type="int" >      455 </v>
   <v type="int" >      456 </v>
   <v type="int" >      457 </v>
   <v type="int" >      458 </v>
   <v type="int" >      459 </v>
   <v type="int" >      460 </v>
   <v type="int" >      461 </v>
   <v type="int" >      462 </v>
   <v type="int" >      463 </v>
   <v type="int" >      464 </v>
   <v type="int" >      465 </v>
   <v type="int" >      466 </v>
   <v type="int" >      467 </v>
   <v type="int" >      468 </v>
   <v type="int" >      469 </v>
   <v type="int" >      470 </v>
   <v type="int" >      471 </v>
   <v type="int" >      472 </v>
   <v type="int" >      473 </v>
   <v type="int" >      474 </v>
   <v type="int" >      475 </v>
   <v type="int" >      476 </v>
   <v type="int" >      477 </v>
   <v type="int" >      478 </v>
   <v type="int" >      479 </v>
   <v type="int" >      480 </v>
   <v type="int" >      481 </v>
   <v type="int" >      482 </v>
   <v type="int" >      483 </v>
   <v type="int" >      484 </v>
   <v type="int" >      485 </v>
   <v type="int" >      486 </v>
   <v type="int" >      487 </v>
   <v type="int" >      488 </v>
  </varray>
 </primitive_cell>
 <kpoints>
  <generation param="Monkhorst-Pack">
   <v type="int" name="divisions">       1        1        1 </v>
   <v name="usershift">      0.00000000       0.00000000       0.00000000 </v>
   <v name="genvec1">      1.00000000      -0.00000000       0.00000000 </v>
   <v name="genvec2">      0.00000000       1.00000000      -0.00000000 </v>
   <v name="genvec3">      0.00000000       0.00000000       1.00000000 </v>
   <v name="shift">      0.00000000       0.00000000       0.00000000 </v>
  </generation>
  <varray name="kpointlist" >
   <v>       0.00000000       0.00000000       0.00000000 </v>
  </varray>
  <varray name="weights" >
   <v>       1.00000000 </v>
  </varray>
 </kpoints>
 <parameters>
  <separator name="general" >
   <i type="string" name="SYSTEM">unknown system</i>
   <i type="logical" name="LCOMPAT"> F  </i>
  </separator>
  <separator name="electronic" >
   <i type="string" name="PREC">normal</i>
   <i name="ENMAX">    400.00000000</i>
   <i name="ENAUG">    644.87300000</i>
   <i name="EDIFF">      0.00001000</i>
   <i type="int" name="IALGO">    38</i>
   <i type="int" name="IWAVPR">    11</i>
   <i type="int" name="NBANDS">  1073</i>
   <i type="int" name="NBANDSLOW">    -1</i>
   <i type="int" name="NBANDSHIGH">    -1</i>
   <i name="NELECT">   1656.00000000</i>
   <i type="int" name="TURBO">     0</i>
   <i type="int" name="IRESTART">     0</i>
   <i type="int" name="NREBOOT">     0</i>
   <i type="int" name="NMIN">     0</i>
   <i name="EREF">      0.00000000</i>
   <separator name="electronic smearing" >
    <i type="int" name="ISMEAR">     0</i>
    <i name="SIGMA">      0.10000000</i>
    <i name="KSPACING">      0.50000000</i>
    <i type="logical" name="KGAMMA"> T  </i>
    <i type="logical" name="KBLOWUP"> T  </i>
   </separator>
   <separator name="electronic projectors" >
    <i type="logical" name="LREAL"> T  </i>
    <v name="ROPT">     -0.00050000     -0.00050000     -0.00050000     -0.00050000     -0.00050000</v>
    <i type="int" name="LMAXPAW">  -100</i>
    <i type="int" name="LMAXMIX">     2</i>
    <i type="logical" name="NLSPLINE"> F  </i>
   </separator>
   <separator name="electronic startup" >
    <i type="int" name="ISTART">     0</i>
    <i type="int" name="ICHARG">     2</i>
    <i type="int" name="INIWAV">     1</i>
   </separator>
   <separator name="electronic spin" >
    <i type="int" name="ISPIN">     1</i>
    <i type="logical" name="LNONCOLLINEAR"> F  </i>
    <v name="MAGMOM">      1.00000000      1.00000000      1.00000000      1.00000000      1.00000000      1.00000000      1.00000000      1.00000000      1.00000000      1.00000000      1.00000000      1.00000000      1.00000000      1.00000000      1.00000000      1.00000000      1.00000000      1.00000000      1.00000000      1.00000000
      1.00000000      1.00000000      1.00000000      1.00000000      1.00000000      1.00000000      1.00000000      1.00000000      1.00000000      1.00000000      1.00000000      1.00000000      1.00000000      1.00000000      1.00000000      1.00000000      1.00000000      1.00000000      1.00000000      1.00000000
      1.00000000      1.00000000      1.00000000      1.00000000      1.00000000      1.00000000      1.00000000      1.00000000      1.00000000      1.00000000      1.00000000      1.00000000      1.00000000      1.00000000      1.00000000      1.00000000      1.00000000      1.00000000      1.00000000      1.00000000
      1.00000000      1.00000000      1.00000000      1.00000000      1.00000000      1.00000000      1.00000000      1.00000000      1.00000000      1.00000000      1.00000000      1.00000000      1.00000000      1.00000000      1.00000000      1.00000000      1.00000000      1.00000000      1.00000000      1.00000000
      1.00000000      1.00000000      1.00000000      1.00000000      1.00000000      1.00000000      1.00000000      1.00000000      1.00000000      1.00000000      1.00000000      1.00000000      1.00000000      1.00000000      1.00000000      1.00000000      1.00000000      1.00000000      1.00000000      1.00000000
      1.00000000      1.00000000      1.00000000      1.00000000      1.00000000      1.00000000      1.00000000      1.00000000      1.00000000      1.00000000      1.00000000      1.00000000      1.00000000      1.00000000      1.00000000      1.00000000      1.00000000      1.00000000      1.00000000      1.00000000
      1.00000000      1.00000000      1.00000000      1.00000000      1.00000000      1.00000000      1.00000000      1.00000000      1.00000000      1.00000000      1.00000000      1.00000000      1.00000000      1.00000000      1.00000000      1.00000000      1.00000000      1.00000000      1.00000000      1.00000000
      1.00000000      1.00000000      1.00000000      1.00000000      1.00000000      1.00000000      1.00000000      1.00000000      1.00000000      1.00000000      1.00000000      1.00000000      1.00000000      1.00000000      1.00000000      1.00000000      1.00000000      1.00000000      1.00000000      1.00000000
      1.00000000      1.00000000      1.00000000      1.00000000      1.00000000      1.00000000      1.00000000      1.00000000      1.00000000      1.00000000      1.00000000      1.00000000      1.00000000      1.00000000      1.00000000      1.00000000      1.00000000      1.00000000      1.00000000      1.00000000
      1.00000000      1.00000000      1.00000000      1.00000000      1.00000000      1.00000000      1.00000000      1.00000000      1.00000000      1.00000000      1.00000000      1.00000000      1.00000000      1.00000000      1.00000000      1.00000000      1.00000000      1.00000000      1.00000000      1.00000000
      1.00000000      1.00000000      1.00000000      1.00000000      1.00000000      1.00000000      1.00000000      1.00000000      1.00000000      1.00000000      1.00000000      1.00000000      1.00000000      1.00000000      1.00000000      1.00000000      1.00000000      1.00000000      1.00000000      1.00000000
      1.00000000      1.00000000      1.00000000      1.00000000      1.00000000      1.00000000      1.00000000      1.00000000      1.00000000      1.00000000      1.00000000      1.00000000      1.00000000      1.00000000      1.00000000      1.00000000      1.00000000      1.00000000      1.00000000      1.00000000
      1.00000000      1.00000000      1.00000000      1.00000000      1.00000000      1.00000000      1.00000000      1.00000000      1.00000000      1.00000000      1.00000000      1.00000000      1.00000000      1.00000000      1.00000000      1.00000000      1.00000000      1.00000000      1.00000000      1.00000000
      1.00000000      1.00000000      1.00000000      1.00000000      1.00000000      1.00000000      1.00000000      1.00000000      1.00000000      1.00000000      1.00000000      1.00000000      1.00000000      1.00000000      1.00000000      1.00000000      1.00000000      1.00000000      1.00000000      1.00000000
      1.00000000      1.00000000      1.00000000      1.00000000      1.00000000      1.00000000      1.00000000      1.00000000      1.00000000      1.00000000      1.00000000      1.00000000      1.00000000      1.00000000      1.00000000      1.00000000      1.00000000      1.00000000      1.00000000      1.00000000
      1.00000000      1.00000000      1.00000000      1.00000000      1.00000000      1.00000000      1.00000000      1.00000000      1.00000000      1.00000000      1.00000000      1.00000000      1.00000000      1.00000000      1.00000000      1.00000000      1.00000000      1.00000000      1.00000000      1.00000000
      1.00000000      1.00000000      1.00000000      1.00000000      1.00000000      1.00000000      1.00000000      1.00000000      1.00000000      1.00000000      1.00000000      1.00000000      1.00000000      1.00000000      1.00000000      1.00000000      1.00000000      1.00000000      1.00000000      1.00000000
      1.00000000      1.00000000      1.00000000      1.00000000      1.00000000      1.00000000      1.00000000      1.00000000      1.00000000      1.00000000      1.00000000      1.00000000      1.00000000      1.00000000      1.00000000      1.00000000      1.00000000      1.00000000      1.00000000      1.00000000
      1.00000000      1.00000000      1.00000000      1.00000000      1.00000000      1.00000000      1.00000000      1.00000000      1.00000000      1.00000000      1.00000000      1.00000000      1.00000000      1.00000000      1.00000000      1.00000000      1.00000000      1.00000000      1.00000000      1.00000000
      1.00000000      1.00000000      1.00000000      1.00000000      1.00000000      1.00000000      1.00000000      1.00000000      1.00000000      1.00000000      1.00000000      1.00000000      1.00000000      1.00000000      1.00000000      1.00000000      1.00000000      1.00000000      1.00000000      1.00000000
      1.00000000      1.00000000      1.00000000      1.00000000      1.00000000      1.00000000      1.00000000      1.00000000      1.00000000      1.00000000      1.00000000      1.00000000      1.00000000      1.00000000      1.00000000      1.00000000      1.00000000      1.00000000      1.00000000      1.00000000
      1.00000000      1.00000000      1.00000000      1.00000000      1.00000000      1.00000000      1.00000000      1.00000000      1.00000000      1.00000000      1.00000000      1.00000000      1.00000000      1.00000000      1.00000000      1.00000000      1.00000000      1.00000000      1.00000000      1.00000000
      1.00000000      1.00000000      1.00000000      1.00000000      1.00000000      1.00000000      1.00000000      1.00000000      1.00000000      1.00000000      1.00000000      1.00000000      1.00000000      1.00000000      1.00000000      1.00000000      1.00000000      1.00000000      1.00000000      1.00000000
      1.00000000      1.00000000      1.00000000      1.00000000      1.00000000      1.00000000      1.00000000      1.00000000      1.00000000      1.00000000      1.00000000      1.00000000      1.00000000      1.00000000      1.00000000      1.00000000      1.00000000      1.00000000      1.00000000      1.00000000
      1.00000000      1.00000000      1.00000000      1.00000000      1.00000000      1.00000000      1.00000000      1.00000000</v>
    <i name="NUPDOWN">     -1.00000000</i>
    <i type="logical" name="LSORBIT"> F  </i>
    <v name="SAXIS">      0.00000000      0.00000000      1.00000000</v>
    <i type="logical" name="LSPIRAL"> F  </i>
    <v name="QSPIRAL">      0.00000000      0.00000000      0.00000000</v>
    <i type="logical" name="LZEROZ"> F  </i>
   </separator>
   <separator name="electronic exchange-correlation" >
    <i type="logical" name="LASPH"> F  </i>
    <i type="logical" name="LMETAGGA"> F  </i>
   </separator>
   <separator name="electronic convergence" >
    <i type="int" name="NELM">    60</i>
    <i type="int" name="NELMDL">     0</i>
    <i type="int" name="NELMIN">     2</i>
    <i name="ENINI">    400.00000000</i>
    <separator name="electronic convergence detail" >
     <i type="logical" name="LDIAG"> T  </i>
     <i type="logical" name="LSUBROT"> F  </i>
     <i name="WEIMIN">      0.00100000</i>
     <i name="EBREAK">      0.00000000</i>
     <i name="DEPER">      0.30000000</i>
     <i type="int" name="NRMM">     4</i>
     <i name="TIME">      0.40000000</i>
    </separator>
   </separator>
   <separator name="electronic mixer" >
    <i name="AMIX">      0.40000000</i>
    <i name="BMIX">      1.00000000</i>
    <i name="AMIN">      0.10000000</i>
    <i name="AMIX_MAG">      1.60000000</i>
    <i name="BMIX_MAG">      1.00000000</i>
    <separator name="electronic mixer details" >
     <i type="int" name="IMIX">     4</i>
     <i type="logical" name="MIXFIRST"> F  </i>
     <i type="int" name="MAXMIX">   -45</i>
     <i name="WC">    100.00000000</i>
     <i type="int" name="INIMIX">     1</i>
     <i type="int" name="MIXPRE">     1</i>
     <i type="int" name="MREMOVE">     5</i>
    </separator>
   </separator>
   <separator name="electronic dipolcorrection" >
    <i type="logical" name="LDIPOL"> F  </i>
    <i type="logical" name="LMONO"> F  </i>
    <i type="int" name="IDIPOL">     0</i>
    <i name="EPSILON">      1.00000000</i>
    <v name="DIPOL">   -100.00000000   -100.00000000   -100.00000000</v>
    <i name="EFIELD">      0.00000000</i>
   </separator>
  </separator>
  <separator name="grids" >
   <i type="int" name="NGX">   210</i>
   <i type="int" name="NGY">   192</i>
   <i type="int" name="NGZ">    40</i>
   <i type="int" name="NGXF">   420</i>
   <i type="int" name="NGYF">   384</i>
   <i type="int" name="NGZF">    80</i>
   <i type="logical" name="ADDGRID"> F  </i>
  </separator>
  <separator name="ionic" >
   <i type="int" name="NSW">   100</i>
   <i type="int" name="IBRION">     2</i>
   <i type="int" name="MDALGO">     0</i>
   <i type="int" name="ISIF">     2</i>
   <i name="PSTRESS">      0.00000000</i>
   <i name="EDIFFG">     -0.02000000</i>
   <i type="int" name="NFREE">     1</i>
   <i name="POTIM">      0.50000000</i>
   <i name="SMASS">     -3.00000000</i>
   <i name="SCALEE">      1.00000000</i>
  </separator>
  <separator name="ionic md" >
   <i name="TEBEG">      0.00010000</i>
   <i name="TEEND">      0.00010000</i>
   <i type="int" name="NBLOCK">     1</i>
   <i type="int" name="KBLOCK">   100</i>
   <i type="int" name="NPACO">   256</i>
   <i name="APACO">     10.00000000</i>
  </separator>
  <separator name="symmetry" >
   <i type="int" name="ISYM">     2</i>
   <i name="SYMPREC">      0.00001000</i>
  </separator>
  <separator name="dos" >
   <i type="int" name="LORBIT">     0</i>
   <v name="RWIGS">     -1.00000000     -1.00000000     -1.00000000     -1.00000000     -1.00000000</v>
   <i type="int" name="NEDOS">   301</i>
   <i name="EMIN">     10.00000000</i>
   <i name="EMAX">    -10.00000000</i>
   <i name="EFERMI">      0.00000000</i>
  </separator>
  <separator name="writing" >
   <i type="int" name="NWRITE">     2</i>
   <i type="logical" name="LWAVE"> F  </i>
   <i type="logical" name="LDOWNSAMPLE"> F  </i>
   <i type="logical" name="LCHARG"> F  </i>
   <i type="logical" name="LPARD"> F  </i>
   <i type="logical" name="LVTOT"> F  </i>
   <i type="logical" name="LVHAR"> F  </i>
   <i type="logical" name="LELF"> F  </i>
   <i type="logical" name="LOPTICS"> F  </i>
   <v name="STM">      0.00000000      0.00000000      0.00000000      0.00000000      0.00000000      0.00000000      0.00000000</v>
  </separator>
  <separator name="performance" >
   <i type="int" name="NPAR">     1</i>
   <i type="int" name="NSIM">     4</i>
   <i type="int" name="NBLK">    -1</i>
   <i type="logical" name="LPLANE"> T  </i>
   <i type="logical" name="LSCALAPACK"> F  </i>
   <i type="logical" name="LSCAAWARE"> F  </i>
   <i type="logical" name="LSCALU"> F  </i>
   <i type="logical" name="LASYNC"> F  </i>
   <i type="logical" name="LORBITALREAL"> F  </i>
  </separator>
  <separator name="miscellaneous" >
   <i type="int" name="IDIOT">     3</i>
   <i type="int" name="PHON_NSTRUCT">    -1</i>
   <i type="logical" name="LMUSIC"> F  </i>
   <v name="POMASS">      1.00000000     12.01100000     14.00100000     16.00000000     24.30500000</v>
   <v name="DARWINR">      0.00000000      0.00000000      0.00000000      0.00000000      0.00000000</v>
   <v name="DARWINV">      1.00000000      1.00000000      1.00000000      1.00000000      1.00000000</v>
   <i type="logical" name="LCORR"> T  </i>
  </separator>
  <i type="logical" name="GGA_COMPAT"> T  </i>
  <i type="logical" name="LBERRY"> F  </i>
  <i type="int" name="ICORELEVEL">     0</i>
  <i type="logical" name="LDAU"> F  </i>
  <i type="int" name="I_CONSTRAINED_M">     0</i>
  <separator name="electronic exchange-correlation" >
   <i type="string" name="GGA">PE</i>
   <i type="int" name="VOSKOWN">     0</i>
   <i type="logical" name="LHFCALC"> F  </i>
   <i type="string" name="PRECFOCK"></i>
   <i type="logical" name="LSYMGRAD"> F  </i>
   <i type="logical" name="LHFONE"> F  </i>
   <i type="logical" name="LRHFCALC"> F  </i>
   <i type="logical" name="LTHOMAS"> F  </i>
   <i type="logical" name="LMODELHF"> F  </i>
   <i type="logical" name="LFOCKACE"> F  </i>
   <i name="ENCUT4O">     -1.00000000</i>
   <i type="int" name="EXXOEP">     0</i>
   <i type="int" name="FOURORBIT">     0</i>
   <i name="AEXX">      0.00000000</i>
   <i name="HFALPHA">      0.00000000</i>
   <i name="MCALPHA">      0.00000000</i>
   <i name="ALDAX">      1.00000000</i>
   <i name="AGGAX">      1.00000000</i>
   <i name="ALDAC">      1.00000000</i>
   <i name="AGGAC">      1.00000000</i>
   <i type="int" name="NKREDX">     1</i>
   <i type="int" name="NKREDY">     1</i>
   <i type="int" name="NKREDZ">     1</i>
   <i type="logical" name="SHIFTRED"> F  </i>
   <i type="logical" name="ODDONLY"> F  </i>
   <i type="logical" name="EVENONLY"> F  </i>
   <i type="int" name="LMAXFOCK">     0</i>
   <i type="int" name="NMAXFOCKAE">     0</i>
   <i type="logical" name="LFOCKAEDFT"> F  </i>
   <i name="HFSCREEN">      0.00000000</i>
   <i name="HFSCREENC">      0.00000000</i>
   <i type="int" name="NBANDSGWLOW">     0</i>
  </separator>
  <separator name="vdW DFT" >
   <i type="logical" name="LUSE_VDW"> F  </i>
   <i type="int" name="IVDW_NL">     1</i>
   <i type="logical" name="LSPIN_VDW"> F  </i>
   <i name="Zab_VDW">     -0.84910000</i>
   <i name="PARAM1">      0.12340000</i>
   <i name="PARAM2">      1.00000000</i>
   <i name="PARAM3">      0.00000000</i>
  </separator>
  <separator name="model GW" >
   <i type="int" name="MODEL_GW">     0</i>
   <i name="MODEL_EPS0">     14.97957183</i>
   <i name="MODEL_ALPHA">      1.00000000</i>
  </separator>
  <separator name="linear response parameters" >
   <i type="logical" name="LEPSILON"> F  </i>
   <i type="logical" name="LRPA"> F  </i>
   <i type="logical" name="LNABLA"> F  </i>
   <i type="logical" name="LVEL"> F  </i>
   <i name="CSHIFT">      0.10000000</i>
   <i name="OMEGAMAX">     -1.00000000</i>
   <i name="DEG_THRESHOLD">      0.00200000</i>
   <i name="RTIME">     -0.10000000</i>
   <i name="WPLASMAI">      0.00000000</i>
   <v name="DFIELD">      0.00000000      0.00000000      0.00000000</v>
   <v name="WPLASMA">      0.00000000      0.00000000      0.00000000      0.00000000      0.00000000      0.00000000      0.00000000      0.00000000      0.00000000</v>
  </separator>
  <separator name="orbital magnetization" >
   <i type="logical" name="NUCIND"> F  </i>
   <v name="MAGPOS">      0.00000000      0.00000000      0.00000000</v>
   <i type="logical" name="LNICSALL"> T  </i>
   <i type="logical" name="ORBITALMAG"> F  </i>
   <i type="logical" name="LMAGBLOCH"> F  </i>
   <i type="logical" name="LCHIMAG"> F  </i>
   <i type="logical" name="LGAUGE"> T  </i>
   <i type="int" name="MAGATOM">     0</i>
   <v name="MAGDIPOL">      0.00000000      0.00000000      0.00000000</v>
   <v name="AVECCONST">      0.00000000      0.00000000      0.00000000</v>
  </separator>
  <separator name="response functions" >
   <i type="logical" name="LALL_IN_ONE"> F  </i>
   <i type="int" name="IALL_IN_ONE">    -1</i>
   <i type="int" name="NBANDS_WAVE">    -1</i>
   <i type="logical" name="LFINITE_TEMPERATURE"> F  </i>
   <i type="logical" name="LADDER"> F  </i>
   <i type="logical" name="LRPAFORCE"> F  </i>
   <i type="logical" name="LFXC"> F  </i>
   <i type="logical" name="LHARTREE"> T  </i>
   <i type="int" name="IBSE">     0</i>
   <v type="int" name="KPOINT">    -1     0     0     0</v>
   <i type="logical" name="LTCTC"> F  </i>
   <i type="logical" name="LTCTE"> F  </i>
   <i type="logical" name="LTETE"> F  </i>
   <i type="logical" name="LTRIPLET"> F  </i>
   <i type="logical" name="LFXCEPS"> F  </i>
   <i type="logical" name="LFXHEG"> F  </i>
   <i type="int" name="NATURALO">     2</i>
   <i type="logical" name="LHOLEGF"> F  </i>
   <i type="logical" name="L2ORDER"> F  </i>
   <i type="logical" name="LDMP1"> F  </i>
   <i type="logical" name="LMP2LT"> F  </i>
   <i type="logical" name="LSMP2LT"> F  </i>
   <i type="logical" name="LGWLF"> F  </i>
   <i name="ENCUTGW">     -1.60000002</i>
   <i name="ENCUTGWSOFT">     -1.60000002</i>
   <i name="ENCUTLF">     -1.00000000</i>
   <i type="logical" name="LESF_SPLINES"> F  </i>
   <i type="int" name="LMAXMP2">    -1</i>
   <i name="SCISSOR">      0.00000000</i>
   <i type="int" name="NOMEGA">     0</i>
   <i type="int" name="NOMEGAR">     0</i>
   <i type="int" name="NBANDSGW">    -1</i>
   <i type="int" name="NBANDSO">    -1</i>
   <i type="int" name="NBANDSV">    -1</i>
   <i type="int" name="NELMGW">     1</i>
   <i type="int" name="NELMHF">     1</i>
   <i type="int" name="DIM">     3</i>
   <i type="int" name="IESPILON">     4</i>
   <i type="int" name="ANTIRES">     0</i>
   <i name="OMEGAMAX">    -30.00000000</i>
   <i name="OMEGAMIN">    -30.00000000</i>
   <i name="OMEGATL">   -200.00000000</i>
   <i type="int" name="OMEGAGRID">     0</i>
   <i name="CSHIFT">     -0.10000000</i>
   <i type="logical" name="LSELFENERGY"> F  </i>
   <i type="logical" name="LSPECTRAL"> F  </i>
   <i type="logical" name="LSPECTRALGW"> F  </i>
   <i type="logical" name="LSINGLES"> F  </i>
   <i type="logical" name="LFERMIGW"> F  </i>
   <i type="logical" name="ODDONLYGW"> F  </i>
   <i type="logical" name="EVENONLYGW"> F  </i>
   <i type="int" name="NKREDLFX">     1</i>
   <i type="int" name="NKREDLFY">     1</i>
   <i type="int" name="NKREDLFZ">     1</i>
   <i type="int" name="MAXMEM">  2800</i>
   <i type="int" name="TELESCOPE">     0</i>
   <i type="int" name="NTAUPAR">    -1</i>
   <i type="int" name="NOMEGAPAR">    -1</i>
   <i name="DAMP_NEWTON">      0.80000001</i>
   <i name="LAMBDA">      1.00000000</i>
  </separator>
  <separator name="External order field" >
   <i name="OFIELD_KAPPA">      0.00000000</i>
   <v name="OFIELD_K">      0.00000000      0.00000000      0.00000000</v>
   <i name="OFIELD_Q6_NEAR">      0.00000000</i>
   <i name="OFIELD_Q6_FAR">      0.00000000</i>
   <i name="OFIELD_A">      0.00000000</i>
  </separator>
  <separator name="optional k-points parameters" >
   <i type="int" name="KPOINTS_OPT_MODE">     1</i>
   <i type="logical" name="LKPOINTS_OPT"> F  </i>
  </separator>
 </parameters>
 <atominfo>
  <atoms>     488 </atoms>
  <types>       5 </types>
  <array name="atoms" >
   <dimension dim="1">ion</dimension>
   <field type="string">element</field>
   <field type="int">atomtype</field>
   <set>
    <rc><c>H </c><c>   1</c></rc>
    <rc><c>H </c><c>   1</c></rc>
    <rc><c>H </c><c>   1</c></rc>
    <rc><c>H </c><c>   1</c></rc>
    <rc><c>H </c><c>   1</c></rc>
    <rc><c>H </c><c>   1</c></rc>
    <rc><c>H </c><c>   1</c></rc>
    <rc><c>H </c><c>   1</c></rc>
    <rc><c>H </c><c>   1</c></rc>
    <rc><c>H </c><c>   1</c></rc>
    <rc><c>H </c><c>   1</c></rc>
    <rc><c>H </c><c>   1</c></rc>
    <rc><c>H </c><c>   1</c></rc>
    <rc><c>H </c><c>   1</c></rc>
    <rc><c>H </c><c>   1</c></rc>
    <rc><c>H </c><c>   1</c></rc>
    <rc><c>H </c><c>   1</c></rc>
    <rc><c>H </c><c>   1</c></rc>
    <rc><c>H </c><c>   1</c></rc>
    <rc><c>H </c><c>   1</c></rc>
    <rc><c>H </c><c>   1</c></rc>
    <rc><c>H </c><c>   1</c></rc>
    <rc><c>H </c><c>   1</c></rc>
    <rc><c>H </c><c>   1</c></rc>
    <rc><c>H </c><c>   1</c></rc>
    <rc><c>H </c><c>   1</c></rc>
    <rc><c>H </c><c>   1</c></rc>
    <rc><c>H </c><c>   1</c></rc>
    <rc><c>H </c><c>   1</c></rc>
    <rc><c>H </c><c>   1</c></rc>
    <rc><c>H </c><c>   1</c></rc>
    <rc><c>H </c><c>   1</c></rc>
    <rc><c>H </c><c>   1</c></rc>
    <rc><c>H </c><c>   1</c></rc>
    <rc><c>H </c><c>   1</c></rc>
    <rc><c>H </c><c>   1</c></rc>
    <rc><c>H </c><c>   1</c></rc>
    <rc><c>H </c><c>   1</c></rc>
    <rc><c>H </c><c>   1</c></rc>
    <rc><c>H </c><c>   1</c></rc>
    <rc><c>H </c><c>   1</c></rc>
    <rc><c>H </c><c>   1</c></rc>
    <rc><c>H </c><c>   1</c></rc>
    <rc><c>H </c><c>   1</c></rc>
    <rc><c>H </c><c>   1</c></rc>
    <rc><c>H </c><c>   1</c></rc>
    <rc><c>H </c><c>   1</c></rc>
    <rc><c>H </c><c>   1</c></rc>
    <rc><c>H </c><c>   1</c></rc>
    <rc><c>H </c><c>   1</c></rc>
    <rc><c>H </c><c>   1</c></rc>
    <rc><c>H </c><c>   1</c></rc>
    <rc><c>H </c><c>   1</c></rc>
    <rc><c>H </c><c>   1</c></rc>
    <rc><c>H </c><c>   1</c></rc>
    <rc><c>H </c><c>   1</c></rc>
    <rc><c>H </c><c>   1</c></rc>
    <rc><c>H </c><c>   1</c></rc>
    <rc><c>H </c><c>   1</c></rc>
    <rc><c>H </c><c>   1</c></rc>
    <rc><c>H </c><c>   1</c></rc>
    <rc><c>H </c><c>   1</c></rc>
    <rc><c>H </c><c>   1</c></rc>
    <rc><c>H </c><c>   1</c></rc>
    <rc><c>H </c><c>   1</c></rc>
    <rc><c>H </c><c>   1</c></rc>
    <rc><c>H </c><c>   1</c></rc>
    <rc><c>H </c><c>   1</c></rc>
    <rc><c>H </c><c>   1</c></rc>
    <rc><c>H </c><c>   1</c></rc>
    <rc><c>H </c><c>   1</c></rc>
    <rc><c>H </c><c>   1</c></rc>
    <rc><c>H </c><c>   1</c></rc>
    <rc><c>H </c><c>   1</c></rc>
    <rc><c>H </c><c>   1</c></rc>
    <rc><c>H </c><c>   1</c></rc>
    <rc><c>H </c><c>   1</c></rc>
    <rc><c>H </c><c>   1</c></rc>
    <rc><c>H </c><c>   1</c></rc>
    <rc><c>H </c><c>   1</c></rc>
    <rc><c>H </c><c>   1</c></rc>
    <rc><c>H </c><c>   1</c></rc>
    <rc><c>H </c><c>   1</c></rc>
    <rc><c>H </c><c>   1</c></rc>
    <rc><c>H </c><c>   1</c></rc>
    <rc><c>H </c><c>   1</c></rc>
    <rc><c>H </c><c>   1</c></rc>
    <rc><c>H </c><c>   1</c></rc>
    <rc><c>H </c><c>   1</c></rc>
    <rc><c>H </c><c>   1</c></rc>
    <rc><c>H </c><c>   1</c></rc>
    <rc><c>H </c><c>   1</c></rc>
    <rc><c>H </c><c>   1</c></rc>
    <rc><c>H </c><c>   1</c></rc>
    <rc><c>H </c><c>   1</c></rc>
    <rc><c>H </c><c>   1</c></rc>
    <rc><c>H </c><c>   1</c></rc>
    <rc><c>H </c><c>   1</c></rc>
    <rc><c>H </c><c>   1</c></rc>
    <rc><c>H </c><c>   1</c></rc>
    <rc><c>H </c><c>   1</c></rc>
    <rc><c>H </c><c>   1</c></rc>
    <rc><c>H </c><c>   1</c></rc>
    <rc><c>H </c><c>   1</c></rc>
    <rc><c>H </c><c>   1</c></rc>
    <rc><c>H </c><c>   1</c></rc>
    <rc><c>H </c><c>   1</c></rc>
    <rc><c>H </c><c>   1</c></rc>
    <rc><c>H </c><c>   1</c></rc>
    <rc><c>H </c><c>   1</c></rc>
    <rc><c>H </c><c>   1</c></rc>
    <rc><c>H </c><c>   1</c></rc>
    <rc><c>H </c><c>   1</c></rc>
    <rc><c>H </c><c>   1</c></rc>
    <rc><c>H </c><c>   1</c></rc>
    <rc><c>H </c><c>   1</c></rc>
    <rc><c>H </c><c>   1</c></rc>
    <rc><c>H </c><c>   1</c></rc>
    <rc><c>H </c><c>   1</c></rc>
    <rc><c>H </c><c>   1</c></rc>
    <rc><c>C </c><c>   2</c></rc>
    <rc><c>C </c><c>   2</c></rc>
    <rc><c>C </c><c>   2</c></rc>
    <rc><c>C </c><c>   2</c></rc>
    <rc><c>C </c><c>   2</c></rc>
    <rc><c>C </c><c>   2</c></rc>
    <rc><c>C </c><c>   2</c></rc>
    <rc><c>C </c><c>   2</c></rc>
    <rc><c>C </c><c>   2</c></rc>
    <rc><c>C </c><c>   2</c></rc>
    <rc><c>C </c><c>   2</c></rc>
    <rc><c>C </c><c>   2</c></rc>
    <rc><c>C </c><c>   2</c></rc>
    <rc><c>C </c><c>   2</c></rc>
    <rc><c>C </c><c>   2</c></rc>
    <rc><c>C </c><c>   2</c></rc>
    <rc><c>C </c><c>   2</c></rc>
    <rc><c>C </c><c>   2</c></rc>
    <rc><c>C </c><c>   2</c></rc>
    <rc><c>C </c><c>   2</c></rc>
    <rc><c>C </c><c>   2</c></rc>
    <rc><c>C </c><c>   2</c></rc>
    <rc><c>C </c><c>   2</c></rc>
    <rc><c>C </c><c>   2</c></rc>
    <rc><c>C </c><c>   2</c></rc>
    <rc><c>C </c><c>   2</c></rc>
    <rc><c>C </c><c>   2</c></rc>
    <rc><c>C </c><c>   2</c></rc>
    <rc><c>C </c><c>   2</c></rc>
    <rc><c>C </c><c>   2</c></rc>
    <rc><c>C </c><c>   2</c></rc>
    <rc><c>C </c><c>   2</c></rc>
    <rc><c>C </c><c>   2</c></rc>
    <rc><c>C </c><c>   2</c></rc>
    <rc><c>C </c><c>   2</c></rc>
    <rc><c>C </c><c>   2</c></rc>
    <rc><c>C </c><c>   2</c></rc>
    <rc><c>C </c><c>   2</c></rc>
    <rc><c>C </c><c>   2</c></rc>
    <rc><c>C </c><c>   2</c></rc>
    <rc><c>C </c><c>   2</c></rc>
    <rc><c>C </c><c>   2</c></rc>
    <rc><c>C </c><c>   2</c></rc>
    <rc><c>C </c><c>   2</c></rc>
    <rc><c>C </c><c>   2</c></rc>
    <rc><c>C </c><c>   2</c></rc>
    <rc><c>C </c><c>   2</c></rc>
    <rc><c>C </c><c>   2</c></rc>
    <rc><c>C </c><c>   2</c></rc>
    <rc><c>C </c><c>   2</c></rc>
    <rc><c>C </c><c>   2</c></rc>
    <rc><c>C </c><c>   2</c></rc>
    <rc><c>C </c><c>   2</c></rc>
    <rc><c>C </c><c>   2</c></rc>
    <rc><c>C </c><c>   2</c></rc>
    <rc><c>C </c><c>   2</c></rc>
    <rc><c>C </c><c>   2</c></rc>
    <rc><c>C </c><c>   2</c></rc>
    <rc><c>C </c><c>   2</c></rc>
    <rc><c>C </c><c>   2</c></rc>
    <rc><c>C </c><c>   2</c></rc>
    <rc><c>C </c><c>   2</c></rc>
    <rc><c>C </c><c>   2</c></rc>
    <rc><c>C </c><c>   2</c></rc>
    <rc><c>C </c><c>   2</c></rc>
    <rc><c>C </c><c>   2</c></rc>
    <rc><c>C </c><c>   2</c></rc>
    <rc><c>C </c><c>   2</c></rc>
    <rc><c>C </c><c>   2</c></rc>
    <rc><c>C </c><c>   2</c></rc>
    <rc><c>C </c><c>   2</c></rc>
    <rc><c>C </c><c>   2</c></rc>
    <rc><c>C </c><c>   2</c></rc>
    <rc><c>C </c><c>   2</c></rc>
    <rc><c>C </c><c>   2</c></rc>
    <rc><c>C </c><c>   2</c></rc>
    <rc><c>C </c><c>   2</c></rc>
    <rc><c>C </c><c>   2</c></rc>
    <rc><c>C </c><c>   2</c></rc>
    <rc><c>C </c><c>   2</c></rc>
    <rc><c>C </c><c>   2</c></rc>
    <rc><c>C </c><c>   2</c></rc>
    <rc><c>C </c><c>   2</c></rc>
    <rc><c>C </c><c>   2</c></rc>
    <rc><c>C </c><c>   2</c></rc>
    <rc><c>C </c><c>   2</c></rc>
    <rc><c>C </c><c>   2</c></rc>
    <rc><c>C </c><c>   2</c></rc>
    <rc><c>C </c><c>   2</c></rc>
    <rc><c>C </c><c>   2</c></rc>
    <rc><c>C </c><c>   2</c></rc>
    <rc><c>C </c><c>   2</c></rc>
    <rc><c>C </c><c>   2</c></rc>
    <rc><c>C </c><c>   2</c></rc>
    <rc><c>C </c><c>   2</c></rc>
    <rc><c>C </c><c>   2</c></rc>
    <rc><c>C </c><c>   2</c></rc>
    <rc><c>C </c><c>   2</c></rc>
    <rc><c>C </c><c>   2</c></rc>
    <rc><c>C </c><c>   2</c></rc>
    <rc><c>C </c><c>   2</c></rc>
    <rc><c>C </c><c>   2</c></rc>
    <rc><c>C </c><c>   2</c></rc>
    <rc><c>C </c><c>   2</c></rc>
    <rc><c>C </c><c>   2</c></rc>
    <rc><c>C </c><c>   2</c></rc>
    <rc><c>C </c><c>   2</c></rc>
    <rc><c>C </c><c>   2</c></rc>
    <rc><c>C </c><c>   2</c></rc>
    <rc><c>C </c><c>   2</c></rc>
    <rc><c>C </c><c>   2</c></rc>
    <rc><c>C </c><c>   2</c></rc>
    <rc><c>C </c><c>   2</c></rc>
    <rc><c>C </c><c>   2</c></rc>
    <rc><c>C </c><c>   2</c></rc>
    <rc><c>C </c><c>   2</c></rc>
    <rc><c>C </c><c>   2</c></rc>
    <rc><c>C </c><c>   2</c></rc>
    <rc><c>C </c><c>   2</c></rc>
    <rc><c>C </c><c>   2</c></rc>
    <rc><c>C </c><c>   2</c></rc>
    <rc><c>C </c><c>   2</c></rc>
    <rc><c>C </c><c>   2</c></rc>
    <rc><c>C </c><c>   2</c></rc>
    <rc><c>C </c><c>   2</c></rc>
    <rc><c>C </c><c>   2</c></rc>
    <rc><c>C </c><c>   2</c></rc>
    <rc><c>C </c><c>   2</c></rc>
    <rc><c>C </c><c>   2</c></rc>
    <rc><c>C </c><c>   2</c></rc>
[...]
   <v>       0.03304581      -0.01570449       0.00531043 </v>
   <v>       0.01900902       0.02827228      -0.00245940 </v>
   <v>      -0.01959189       0.02114583       0.00181524 </v>
   <v>       0.00652311       0.01501658      -0.00257963 </v>
   <v>       0.01177446       0.00057332       0.00351122 </v>
   <v>      -0.00982321      -0.01509608       0.00839113 </v>
   <v>       0.00337321       0.00782838       0.00410319 </v>
   <v>       0.00208097       0.01208204      -0.00385984 </v>
   <v>       0.02520240       0.04104467       0.01903377 </v>
   <v>      -0.01070204      -0.01216076      -0.00535969 </v>
   <v>      -0.03772270      -0.01920528      -0.01307607 </v>
   <v>       0.01753608       0.00754058       0.00070331 </v>
   <v>      -0.01870736       0.00247316      -0.00431615 </v>
   <v>       0.01364038      -0.01155541       0.01071932 </v>
   <v>       0.01008849      -0.00800450      -0.00901975 </v>
   <v>       0.01369886      -0.00619977      -0.00002265 </v>
   <v>      -0.00378975       0.00025750      -0.00287465 </v>
   <v>      -0.04252115       0.02679073      -0.01437883 </v>
   <v>       0.00767819       0.01057837       0.00612617 </v>
   <v>       0.01827905      -0.00816878       0.00905461 </v>
   <v>       0.00352291       0.00188757       0.00513754 </v>
   <v>       0.00462530      -0.00027478       0.00060653 </v>
   <v>      -0.09076450       0.06795126      -0.07080748 </v>
   <v>      -0.02198237      -0.03558505      -0.02019991 </v>
   <v>       0.05731040      -0.05669645       0.03822152 </v>
   <v>      -0.00992628      -0.00884913      -0.00668143 </v>
   <v>      -0.00170393       0.00133138       0.00243197 </v>
   <v>       0.00265469       0.00603411       0.00065691 </v>
   <v>       0.05851915      -0.05352610       0.03619369 </v>
   <v>       0.02852002       0.03073989       0.00429946 </v>
   <v>      -0.01925050       0.00546801       0.01734856 </v>
   <v>       0.06328431       0.06159682      -0.02961469 </v>
   <v>      -0.00502914       0.00443055       0.00383588 </v>
   <v>       0.05066331      -0.01944847      -0.02284480 </v>
   <v>       0.00461288       0.01242066      -0.00344595 </v>
   <v>      -0.01565481      -0.04592787      -0.01043400 </v>
   <v>       0.00499812       0.00961297      -0.00240271 </v>
   <v>       0.01981383       0.00782636      -0.02181854 </v>
   <v>       0.04020132      -0.03726629      -0.02383782 </v>
   <v>      -0.00554209       0.07233549      -0.00567977 </v>
   <v>       4.51425557      -1.38895633      -0.95475465 </v>
   <v>       2.39001983       0.32082744      -0.78856924 </v>
   <v>      -0.01205115      -0.00749025       0.01041593 </v>
   <v>      -0.00331770       0.00841452      -0.00667128 </v>
   <v>       1.24143691       0.49674408      -0.24731855 </v>
   <v>       1.14331890      -0.41364300      -0.27931818 </v>
   <v>       0.02223291       0.03823056      -0.01060546 </v>
   <v>      -0.00917216      -0.05722450       0.00076832 </v>
   <v>      -0.15699236      -0.63422068       0.01879499 </v>
   <v>      -0.30378175       0.68127235      -0.07152210 </v>
   <v>       0.00676503       0.00040072       0.00730266 </v>
   <v>      -0.01926147       0.00721951       0.00079188 </v>
   <v>      -0.05889854      -0.96722572      -0.05426821 </v>
   <v>      -0.10205225       0.46299504      -0.05189193 </v>
   <v>       0.00325555       0.00677261      -0.00415230 </v>
   <v>      -0.01268486       0.00568826       0.00437499 </v>
   <v>      -0.25094749       0.03717544       0.08348366 </v>
   <v>      -0.14434006      -0.19954085       0.10452494 </v>
   <v>       0.00262962      -0.04827968       0.00962652 </v>
   <v>       0.03157124      -0.00493720      -0.03058055 </v>
   <v>      -0.07649930      -0.06415704       0.02928877 </v>
   <v>      -0.17874415       0.21398918       0.05633704 </v>
   <v>      -0.00299552      -0.02824068       0.00286315 </v>
   <v>      -0.02866591       0.02627972       0.02460825 </v>
   <v>      -0.06546686       0.03432479      -0.04960234 </v>
   <v>       0.01452767       0.02216809       0.02022585 </v>
   <v>       0.00078271       0.00426909      -0.05216865 </v>
   <v>      -0.00517435       0.01037229       0.00514931 </v>
   <v>      -0.06232525      -0.07578674      -0.06281819 </v>
   <v>      -0.08939391       0.15008476       0.00448605 </v>
   <v>       0.00718636      -0.01085731      -0.00340022 </v>
   <v>      -0.04203216       0.06328235       0.00030415 </v>
   <v>      -0.00224121      -0.00019110      -0.00535327 </v>
   <v>      -0.05218377      -0.00759366      -0.01415645 </v>
   <v>      -0.19040250       0.37251885      -0.18988151 </v>
   <v>      -0.01497533      -0.00747886      -0.00657094 </v>
   <v>      -0.19841964       0.40146435      -0.26000047 </v>
   <v>       0.01823143       0.00845863      -0.01189689 </v>
   <v>      -0.03446206       0.03460434      -0.00581183 </v>
   <v>       0.05830676      -0.08047684       0.03081170 </v>
   <v>      -0.02254913       0.00464455      -0.00103987 </v>
   <v>      -0.00789169      -0.02441305       0.01122049 </v>
   <v>      -0.10933907      -0.02781946      -0.05980481 </v>
   <v>       0.01317073      -0.01850943       0.00312788 </v>
   <v>      -0.16188954      -0.03710040      -0.08824654 </v>
   <v>       0.00370240      -0.02399956       0.01315327 </v>
   <v>      -0.03184574       0.01439978       0.00100008 </v>
   <v>      -0.00288494      -0.07558651       0.03237249 </v>
   <v>      -0.04345514      -0.03346139      -0.01712426 </v>
   <v>      -0.00796234       0.00657005       0.00073698 </v>
   <v>      -0.01622348       0.04293459       0.00443318 </v>
   <v>      -0.02710844      -0.00483495      -0.00789429 </v>
   <v>       0.00556639       0.03832811       0.00094346 </v>
   <v>       0.01620115      -0.02505178       0.01760438 </v>
   <v>      -0.01415700       0.02230329       0.00403932 </v>
   <v>      -0.05732165      -0.01955626      -0.00047047 </v>
   <v>       0.03054166      -0.03247576       0.00365418 </v>
   <v>      -0.01210301      -0.01558232       0.00012410 </v>
   <v>      -0.08656308       0.00031015      -0.02061477 </v>
   <v>      -0.02463022      -0.02605433      -0.00643503 </v>
   <v>      -0.06026450       0.00877358      -0.00915602 </v>
   <v>       0.02798066      -0.01345621       0.00739264 </v>
   <v>      -0.02585393       0.00761127      -0.00726881 </v>
   <v>      -0.03343020       0.01824092      -0.01167670 </v>
   <v>       0.01783143       0.01715253       0.00949694 </v>
   <v>       0.02406797       0.02250651      -0.00445003 </v>
   <v>      -0.03053238       0.00239847      -0.00070506 </v>
   <v>       0.01178367       0.01358091      -0.00362790 </v>
   <v>      -0.01405739       0.02694240       0.00168743 </v>
   <v>       0.00941819       0.00206076       0.00427526 </v>
   <v>      -0.00637668       0.03445839       0.00769273 </v>
   <v>       0.01028826       0.02141757       0.00183791 </v>
   <v>      -0.01557842       0.02705840       0.01329573 </v>
   <v>      -0.00053945      -0.01270890       0.01169028 </v>
   <v>       0.00576494       0.05425445       0.02807425 </v>
   <v>      -0.00829471      -0.00178546      -0.00436482 </v>
   <v>       0.01804704       0.08985635       0.02277800 </v>
   <v>       0.02342679      -0.00210310       0.00735520 </v>
   <v>      -0.04664360       0.04682143      -0.04992693 </v>
   <v>      -0.00658003      -0.04980061      -0.01207428 </v>
   <v>      -0.00339682      -0.01739262       0.02181951 </v>
   <v>      -0.01492280      -0.05788465      -0.03401050 </v>
   <v>       1.98034282      -3.12619997       1.99125035 </v>
   <v>       0.02822224       0.03934229       0.03046352 </v>
   <v>       1.75216089      -3.59540212       2.78401647 </v>
   <v>      -0.44436873      -0.09623995       0.14856582 </v>
   <v>      -0.04161056       0.01257833       0.00106597 </v>
   <v>      -6.63681119       1.41656876       1.70592317 </v>
   <v>      -0.04340810       0.00167683       0.02009312 </v>
   <v>      -2.20421642       1.38332849       0.58802252 </v>
   <v>       0.01582608      -0.01713869      -0.00488702 </v>
   <v>       0.26335287      -0.01385306      -0.04558916 </v>
   <v>      -0.04585616      -0.02213013       0.01678500 </v>
   <v>       0.14168907       0.11348978      -0.05660455 </v>
   <v>      -0.01933596      -0.00569542      -0.01926243 </v>
   <v>       0.04265484       0.00589941       0.01351907 </v>
   <v>      -0.04337700       0.00532939      -0.03395998 </v>
   <v>       0.02462821       0.00519780       0.00217139 </v>
   <v>      -0.02615563       0.01908342      -0.01623393 </v>
   <v>       0.05351823       0.00485004       0.01349272 </v>
   <v>       0.01974939       0.03496578       0.01897728 </v>
   <v>      -0.00851312       0.00917369       0.00095279 </v>
   <v>       0.01603221       0.03593798       0.00528620 </v>
   <v>       0.04138251       0.02656509       0.00064575 </v>
   <v>      -0.00416609      -0.00322360      -0.00188790 </v>
   <v>      -0.00128529      -0.04461027      -0.02083171 </v>
   <v>      -0.08357235      -0.09227623       0.03142806 </v>
   <v>       0.08729151      -0.25844393       0.12014685 </v>
   <v>      -0.30721942       0.38438731      -0.13695048 </v>
   <v>      -0.12790375       0.75019141      -0.26077445 </v>
   <v>      -0.00667286       0.01795145       0.01954162 </v>
   <v>      -0.01233910      -0.03148274       0.01616537 </v>
   <v>      -0.00920110      -0.01320566       0.00245428 </v>
   <v>       0.02278695      -0.00644285       0.00256018 </v>
   <v>       0.01800167      -0.02014386      -0.00869648 </v>
   <v>      -0.04143685       0.01245144      -0.02200227 </v>
   <v>      -0.00633308       0.00070307       0.00621287 </v>
   <v>       0.01899600       0.01480167       0.02299227 </v>
   <v>       0.02164442       0.01752474       0.00522809 </v>
   <v>      -0.03385018      -0.02167506       0.00430597 </v>
   <v>       0.00932817       0.00525418       0.01275688 </v>
   <v>      -0.00541490       0.00638721       0.00649311 </v>
   <v>       0.00517823       0.00188635       0.01050192 </v>
   <v>      -0.01190214       0.01257649      -0.00451353 </v>
   <v>      -0.00410215       0.01342315       0.00018442 </v>
   <v>       0.00335436       0.01862393       0.00803164 </v>
   <v>      -0.03447044      -0.11077809      -0.11127406 </v>
   <v>       0.00767335       0.02251395       0.01741190 </v>
   <v>       0.00849109       0.00267837       0.00416670 </v>
   <v>      -0.01173188       0.01203912      -0.00034029 </v>
   <v>       0.05796562       0.06181258      -0.02198956 </v>
   <v>      -0.02619717      -0.00209257      -0.01430431 </v>
   <v>       0.06024424       0.02082312      -0.00293789 </v>
   <v>      -0.03427670       0.02732762      -0.03204993 </v>
   <v>       0.00923799      -0.02277227       0.00485194 </v>
   <v>      -0.05201368       0.01348450      -0.03007281 </v>
   <v>       0.03733667       0.03348531       0.06253173 </v>
   <v>       0.10860052       0.06486728       0.07248714 </v>
   <v>      -0.05811512      -0.02591341       0.00036395 </v>
   <v>      -0.58909583      -0.32391760      -0.46709662 </v>
   <v>      -0.02447199       0.07429417       0.06563940 </v>
   <v>       0.01807100       0.00100814      -0.01241714 </v>
   <v>       0.01214414       0.01681718      -0.01707525 </v>
   <v>      -0.02423069      -0.03411132       0.00237571 </v>
   <v>      -0.00917128       0.01856594      -0.01302797 </v>
   <v>       0.00606660       0.00371492      -0.01360522 </v>
   <v>       0.01136746       0.00657922      -0.00952796 </v>
   <v>       0.00089315       0.00392715      -0.00651625 </v>
   <v>      -0.03090365       0.07386629       0.02651442 </v>
   <v>      -0.19994378      -0.09149695      -0.10723461 </v>
   <v>       0.18335632       0.08648063       0.10169974 </v>
   <v>       0.74625567       0.43351286       0.43229801 </v>
   <v>      -0.01922941      -0.09076153      -0.01696933 </v>
   <v>       0.07117570      -0.06361279      -0.00872015 </v>
   <v>      -0.24054821       0.09562656      -0.04755145 </v>
   <v>       0.33770096       0.09757710      -0.01903724 </v>
   <v>      -0.00749210      -0.16986441       0.05639478 </v>
   <v>       0.00436456      -0.07035559       0.07755623 </v>
   <v>       0.03347719      -0.08947870       0.06313514 </v>
   <v>      -0.13105255       0.00634696      -0.02311988 </v>
   <v>      -0.17271955       0.11185536       0.00264603 </v>
   <v>      -0.01533098      -0.08999648      -0.04532960 </v>
   <v>       0.04568783       0.08888192       0.08858067 </v>
   <v>      -0.02210817       0.10907200       0.08575486 </v>
   <v>       0.33602408       0.05432992       0.01472644 </v>
   <v>      -0.16122516      -0.13910201      -0.04308848 </v>
   <v>      -0.00620838      -0.01799942       0.00724665 </v>
   <v>       0.05604747       0.04240113      -0.01851407 </v>
   <v>      -0.01908378       0.00999314      -0.01161494 </v>
   <v>      -0.04532374      -0.01532664      -0.00943612 </v>
   <v>      -0.02907347      -0.02389867       0.00788466 </v>
   <v>      -0.01644233       0.01353614      -0.00347497 </v>
   <v>       0.02104316      -0.00562502      -0.00131159 </v>
   <v>       0.02981709      -0.02359707      -0.01434219 </v>
   <v>      -0.00667677       0.02899180       0.01301033 </v>
   <v>      -0.00559595      -0.04034647      -0.03347818 </v>
   <v>       0.00901867      -0.01095664       0.00162296 </v>
   <v>      -0.01613095       0.03108901       0.01321563 </v>
   <v>      -0.05883426      -0.03124177      -0.00852381 </v>
   <v>       0.07061998       0.03111393      -0.01051365 </v>
   <v>       0.03624987       0.04943482      -0.01220321 </v>
   <v>      -0.46752925       0.11470195      -0.25744369 </v>
   <v>       0.20722000      -0.28725415       0.02710958 </v>
   <v>      -0.06607352       0.15765093      -0.09277686 </v>
   <v>      -0.04424269       0.01353945      -0.03884419 </v>
   <v>       0.04832029      -0.05405188      -0.01613427 </v>
   <v>      -0.00789145      -0.10992793      -0.07523179 </v>
   <v>      -0.19331511      -0.05270975      -0.11649644 </v>
   <v>       0.16960969       0.08390224      -0.12908459 </v>
   <v>       0.09252081       0.11884389       0.03868283 </v>
   <v>       0.00443776       0.00327735      -0.00239516 </v>
   <v>      -0.02284680      -0.00195116      -0.00760763 </v>
   <v>       0.06154900      -0.00043632       0.00794704 </v>
   <v>       0.02734573      -0.00604399       0.00917507 </v>
   <v>      -0.00257359      -0.03366711      -0.01298758 </v>
   <v>      -0.00910391       0.00433065      -0.00733908 </v>
   <v>       0.00196137      -0.01113503      -0.00161517 </v>
   <v>       0.01664371       0.00181939       0.00395646 </v>
   <v>       0.02137436      -0.03002984       0.01736444 </v>
   <v>       0.02154388       0.00927517       0.01926253 </v>
   <v>      -0.02936560      -0.01501085      -0.00626930 </v>
   <v>       0.04342851       0.06043088       0.01638238 </v>
   <v>      -1.61281989       2.72167377      -1.66731809 </v>
   <v>      -0.02761556      -0.04703468      -0.02308931 </v>
   <v>      -1.36727701       3.14141892      -2.32272729 </v>
   <v>       0.38574708       0.06652839      -0.10713889 </v>
   <v>       0.01004510      -0.02510081      -0.01700090 </v>
   <v>       0.02189690       0.00955089       0.00406869 </v>
   <v>       0.01594387      -0.00947713       0.00482820 </v>
   <v>       0.01141193      -0.00930568       0.00965247 </v>
   <v>       0.00916735      -0.04209002      -0.00247419 </v>
   <v>       0.00064901       0.00339003      -0.00658543 </v>
   <v>       0.03666152      -0.06445440      -0.00595605 </v>
   <v>       0.01507317      -0.02540861       0.01347728 </v>
   <v>       0.09377332      -0.05954279       0.05473786 </v>
   <v>       0.01977598       0.00731753       0.00743628 </v>
   <v>       0.01034077       0.03674168      -0.01310896 </v>
   <v>       0.00501217       0.00522498       0.00027021 </v>
   <v>      -0.00614866       0.01631687      -0.00769423 </v>
   <v>       0.00979046       0.01074439       0.00637893 </v>
   <v>      -0.04067645       0.05411925      -0.03006765 </v>
   <v>      -0.01554181      -0.00646945       0.01233027 </v>
   <v>       0.01336076      -0.01412791      -0.00988094 </v>
   <v>       0.01200260      -0.01666243      -0.00522070 </v>
   <v>       0.00092225      -0.02433278      -0.01149927 </v>
   <v>      -0.02149708      -0.02799894       0.02487151 </v>
   <v>       0.16626719      -0.15369485       0.04445925 </v>
   <v>       0.21376555      -0.64295920       0.23561364 </v>
   <v>      -0.01393688       0.03408335       0.00137038 </v>
   <v>       0.02752686       0.01112996       0.00215803 </v>
   <v>      -0.00944088       0.01180415      -0.00770606 </v>
   <v>      -0.01148277       0.02334627       0.00090798 </v>
   <v>       0.01358081       0.09482163       0.09901226 </v>
   <v>      -0.00426287       0.00672873      -0.00866695 </v>
   <v>      -0.02037490      -0.02960301       0.01965496 </v>
   <v>       0.00997656      -0.00449867       0.01559160 </v>
   <v>       0.02034734      -0.02044336      -0.02322465 </v>
   <v>       0.48481615       0.27572397       0.33632668 </v>
   <v>       0.02616765       0.00490844       0.02470152 </v>
   <v>       0.02174582      -0.01576953       0.01765790 </v>
   <v>      -0.06764787      -0.06763382      -0.11125387 </v>
   <v>      -0.63313836      -0.23281615      -0.31891105 </v>
   <v>      -0.03958764       0.06118685      -0.05974340 </v>
   <v>      -0.00866155       0.06401144      -0.05555244 </v>
   <v>      -0.02441535      -0.05485924      -0.02954820 </v>
   <v>      -0.10418041      -0.13003831      -0.03953262 </v>
   <v>       0.04490131      -0.00870654       0.01883116 </v>
   <v>      -0.00210276      -0.00499968       0.00255009 </v>
   <v>      -0.02028514      -0.00688067      -0.01178003 </v>
   <v>      -0.00384549       0.02326559       0.01969597 </v>
   <v>      -0.00487632      -0.06220824       0.03303528 </v>
   <v>       0.30427718      -0.13026847       0.16687379 </v>
   <v>       0.07430108       0.02394374       0.08281983 </v>
   <v>       0.05778741       0.14328636       0.14657518 </v>
   <v>      -0.00373325      -0.00487382      -0.01251562 </v>
   <v>       0.00709937      -0.00277644       0.04107386 </v>
   <v>       0.09983218       0.02468773      -0.04120609 </v>
   <v>      -0.00358829       0.01669086       0.01248862 </v>
   <v>       0.00048878       0.00066847       0.00428825 </v>
   <v>       0.00274446      -0.00012996      -0.00321027 </v>
   <v>      -0.01565706       0.00361705      -0.00370231 </v>
   <v>       0.00056206      -0.01029259       0.00028648 </v>
   <v>      -0.00652116       0.02548983       0.00731211 </v>
   <v>       0.01890036      -0.01077296      -0.03406297 </v>
   <v>      -0.01650296       0.02921030      -0.04666795 </v>
   <v>      -0.02859388       0.02485737       0.01783214 </v>
   <v>       0.00081953       0.00509412       0.00658628 </v>
   <v>      -0.00182524      -0.00142666      -0.00460740 </v>
   <v>      -0.00169873      -0.02075118       0.01686854 </v>
   <v>       0.01271750       0.02393447      -0.00749710 </v>
  </varray>
  <varray name="stress" >
   <v>      -8.44617532       0.21411243       0.24440735 </v>
   <v>       0.21411243      -9.55763977       0.47356261 </v>
   <v>       0.24440735       0.47356264      -9.53889712 </v>
  </varray>
  <energy>
   <i name="e_fr_energy">  -3571.45301573 </i>
   <i name="e_wo_entrp">  -3571.44868004 </i>
   <i name="e_0_energy">  -3571.45084788 </i>
  </energy>
  <time name="totalsc">  124.06  124.06</time>
 </calculation>
