unknown system                          
            1
    41.908700    0.000000    0.000000
    -0.153403   37.007582    0.000000
     0.416001   -0.165295    7.855486
   H    C    N    O    Mg
   120   288    32    32    16
Direct configuration=     1
   0.58258076  0.52470225  0.08137784
   0.43155057  0.52787708  0.44145065
   0.07300729  0.02679114  0.06650319
   0.92448916  0.02240338  0.44992780
   0.43208712  0.46189183  0.45908393
   0.58237122  0.45851652  0.09031152
   0.92708527  0.95680379  0.45450826
   0.07302309  0.96086261  0.04961232
   0.65464215  0.66437218  0.18839147
   0.35005621  0.65716906  0.33813839
   0.15767255  0.15209953  0.17851915
   0.84628795  0.15493294  0.31454431
   0.34472873  0.34004006  0.31453217
   0.66447045  0.33466825  0.18383651
   0.84200721  0.84313392  0.31846609
   0.17473235  0.85674019  0.20521952
   0.65191952  0.78090706  0.18530935
   0.35759841  0.77411755  0.33745690
   0.15905536  0.27042915  0.15262322
   0.84298439  0.27346070  0.37469333
   0.34165877  0.22099904  0.31477963
   0.66497880  0.21853319  0.13436741
   0.83405545  0.72548545  0.31586724
   0.17188018  0.73326057  0.22834464
   0.70616477  0.80224560  0.27014025
   0.30554005  0.79786998  0.24156419
   0.21263216  0.29267704  0.23847855
   0.79005020  0.29354242  0.27287145
   0.28836725  0.19977000  0.21844630
   0.71726037  0.19791619  0.24387746
   0.78015975  0.70796934  0.21248640
   0.22613606  0.70906277  0.28419717
   0.69671524  0.68073587  0.01835697
   0.30726504  0.67634098  0.47713286
   0.20267002  0.16625323  0.05159336
   0.80108197  0.16763814  0.43937020
   0.29752058  0.32413166  0.43638271
   0.70985244  0.32180458  0.04254501
   0.79444904  0.83054069  0.44440457
   0.21834949  0.83351271  0.09008525
   0.49880563  0.61146721  0.12933115
   0.00347495  0.11399518  0.34583374
   0.50412293  0.36934278  0.25214447
   0.00582410  0.86727970  0.26807446
   0.57249138  0.53234932  0.56903757
   0.42118176  0.53533871  0.92097770
   0.07876304  0.04013366  0.58517480
   0.92962400  0.03675278  0.95770838
   0.42142727  0.46964329  0.93087306
   0.57137500  0.46630123  0.55775548
   0.93151103  0.97084179  0.96534442
   0.08040532  0.97454425  0.59171318
   0.65451957  0.66464642  0.69753049
   0.34040065  0.65777995  0.80659465
   0.15466709  0.17240720  0.67528150
   0.83886337  0.15776411  0.78889470
   0.33795010  0.34055492  0.78271490
   0.65600848  0.34383514  0.66806602
   0.84001669  0.85333450  0.74928381
   0.15890150  0.83957854  0.62708640
   0.65025857  0.78020246  0.67405306
   0.33289210  0.77319400  0.79858637
   0.15567192  0.28642570  0.66302745
   0.83809436  0.27455689  0.85055016
   0.33548444  0.22609354  0.81426649
   0.65887747  0.22607971  0.61070786
   0.83425959  0.73783958  0.82113663
   0.14668037  0.72393174  0.78543732
   0.70335234  0.80521496  0.75922405
   0.27758148  0.78908850  0.71609590
   0.20971584  0.30452824  0.76765465
   0.78588272  0.29717911  0.74908022
   0.28100499  0.20820510  0.71533618
   0.71101375  0.20403164  0.71405304
   0.78051143  0.71496606  0.73768222
   0.20082269  0.70180475  0.85758946
   0.69887100  0.68028324  0.54112333
   0.29431011  0.67101717  0.96667939
   0.19764838  0.18432129  0.50454702
   0.79253758  0.17072649  0.91626350
   0.29506486  0.32990869  0.95795036
   0.70296303  0.33109111  0.55876487
   0.79156413  0.84319639  0.89269970
   0.19539764  0.80962622  0.51046248
   0.50246191  0.62275514  0.82407242
   0.99581211  0.12802980  0.69881466
   0.49537875  0.37658176  0.73470370
   0.00903717  0.88109857  0.76255522
   0.53265512  0.63387870  0.99714529
   0.57368233  0.68093215  0.98624851
   0.36722747  0.60057209  0.29422918
   0.41014107  0.55640823  0.23629894
   0.09540329  0.05616671  0.28721251
   0.13879335  0.09901548  0.22341760
   0.96981725  0.13449705  0.50458112
   0.92566579  0.17790468  0.53425992
   0.42285030  0.31489501  0.53794431
   0.46981667  0.35553172  0.50550791
   0.63823106  0.38138453  0.29958330
   0.59081560  0.41917082  0.35483329
   0.96686322  0.85142020  0.51753361
   0.91876700  0.81235697  0.53530216
   0.13865141  0.90373035  0.34485055
   0.08726136  0.93616662  0.34633699
   0.59135250  0.56814431  0.83069327
   0.63358671  0.61543492  0.80089622
   0.36613048  0.61055652  0.71326525
   0.41206956  0.56973480  0.68847355
   0.08713255  0.07939321  0.80329487
   0.13225476  0.12151362  0.76591983
   0.86337398  0.10656109  0.69943306
   0.91046558  0.06569519  0.67206529
   0.41007345  0.43340026  0.67136314
   0.36351420  0.39164051  0.68406546
   0.58531078  0.43314394  0.79136039
   0.63151071  0.39332245  0.75150530
   0.86867397  0.90562805  0.67174452
   0.91718660  0.94385402  0.67887663
   0.07467630  0.82227101  0.46790100
   0.03249714  0.86755752  0.51969535
   0.53233329  0.56915168  0.16365121
   0.47527459  0.56824301  0.25211390
   0.02990924  0.06837146  0.25509343
   0.97261224  0.06828035  0.34301458
   0.47694462  0.41666613  0.31352720
   0.53358078  0.41588100  0.20827765
   0.97605370  0.91378125  0.32893743
   0.03219322  0.91593886  0.22199066
   0.53387587  0.53104637  0.18432397
   0.47694214  0.53138681  0.29557565
   0.02909319  0.03063687  0.22518299
   0.97250278  0.02975408  0.33973126
   0.47788308  0.45500798  0.32134880
   0.53408913  0.45409687  0.20234792
   0.97498778  0.95220544  0.33955094
   0.03019074  0.95408189  0.21292799
   0.56141402  0.51051354  0.13144085
   0.45166188  0.51259654  0.38418624
   0.05431039  0.01155586  0.13505300
   0.94619127  0.00868096  0.40229416
   0.45203512  0.47587574  0.39499198
   0.56133114  0.47364752  0.13742299
   0.94769210  0.97185643  0.40525109
   0.05480656  0.97477636  0.12916301
   0.63453520  0.67542563  0.12383930
   0.37126234  0.66865748  0.39455529
   0.13737741  0.16487955  0.12156675
   0.86496020  0.16798336  0.38578936
   0.36319909  0.32585139  0.37952740
   0.64545072  0.32342689  0.10846262
   0.85992071  0.82783302  0.38248728
   0.15374177  0.84030817  0.17906953
   0.63868256  0.71042198  0.07382616
   0.36756817  0.70440965  0.44032975
   0.14386091  0.19967855  0.07325134
   0.85819877  0.20255364  0.44091179
   0.35575698  0.29083425  0.41914849
   0.65170833  0.28878510  0.04995706
   0.85093781  0.79348397  0.42416155
   0.15852166  0.80363751  0.16406750
   0.66955926  0.72799938  0.10451413
   0.33714843  0.72207613  0.40391978
   0.17560094  0.21556290  0.10615200
   0.82708977  0.21809258  0.40464535
   0.32458768  0.27519396  0.37638910
   0.68246923  0.27289347  0.09179564
   0.81912030  0.78012887  0.38117503
   0.19003857  0.78680405  0.17078411
   0.67286309  0.76347702  0.16753120
   0.33593909  0.75767706  0.34639092
   0.17952884  0.25223844  0.15033471
   0.82303319  0.25457867  0.36629871
   0.32109691  0.23912058  0.32069676
   0.68546146  0.23678930  0.13966189
   0.81428797  0.74463176  0.32188039
   0.19311584  0.75033602  0.21380248
   0.70267091  0.77526368  0.21593261
   0.30730429  0.77084278  0.29241857
   0.20911334  0.26464669  0.19873986
   0.79405716  0.26572198  0.30852683
   0.29181082  0.22733829  0.26548252
   0.71408092  0.22540121  0.20092342
   0.78475952  0.73495848  0.26356828
   0.22285008  0.73682097  0.24571073
   0.72871039  0.75137445  0.20146305
   0.28021178  0.74840700  0.29873382
   0.23475812  0.24044044  0.20213818
   0.76950846  0.24023803  0.28886371
   0.26605422  0.25157326  0.26600421
   0.73935280  0.25024136  0.21378104
   0.76021730  0.76077878  0.26641162
   0.24933747  0.76021233  0.23824720
   0.69773464  0.70743863  0.08056762
   0.30809768  0.70287680  0.41792804
   0.20353097  0.19424366  0.09971200
   0.79996805  0.19551661  0.39607274
   0.29677842  0.29663090  0.38233378
   0.71013303  0.29463609  0.09490610
   0.79249808  0.80335395  0.38810376
   0.21873734  0.80641461  0.14326738
   0.61458968  0.73018125  0.99690312
   0.38976052  0.72823124  0.51654284
   0.12267408  0.22351890  0.99566971
   0.88084953  0.22418422  0.52483378
   0.37824897  0.26830509  0.49435843
   0.63071713  0.26471935  0.96685727
   0.87208746  0.76917286  0.49820741
   0.13215888  0.77917007  0.17494240
   0.50211848  0.58454711  0.17638712
   0.00202641  0.08541466  0.31795230
   0.50491795  0.39880843  0.25681546
   0.00474239  0.89675235  0.27504279
   0.50563326  0.51214045  0.24490485
   0.00117579  0.01105230  0.28261666
   0.50591480  0.47365988  0.25742651
   0.00213125  0.97239202  0.27934612
   0.52835721  0.57594357  0.73692076
   0.47062321  0.57882793  0.81083511
   0.02781079  0.08420602  0.69200986
   0.97073725  0.08032452  0.78088561
   0.46821350  0.42388827  0.79603639
   0.52474139  0.42283258  0.69539214
   0.97511240  0.92815109  0.79804974
   0.03232468  0.92847914  0.70879823
   0.52692503  0.53816562  0.70979926
   0.46931236  0.54009892  0.80835893
   0.03014617  0.04550785  0.69460299
   0.97324759  0.04270761  0.80252069
   0.46847515  0.46233517  0.80700318
   0.52515833  0.46126475  0.69389509
   0.97554111  0.96627969  0.81016587
   0.03215942  0.96709941  0.70059105
   0.55268022  0.51788044  0.63166756
   0.44194980  0.52034661  0.86892160
   0.05782514  0.02544709  0.63607861
   0.94829560  0.02235273  0.88404522
   0.44196167  0.48337810  0.87148197
   0.55180025  0.48105467  0.62359100
   0.94938083  0.98572766  0.88948148
   0.05861193  0.98839483  0.63831124
   0.63420227  0.67503237  0.63173878
   0.35970847  0.67277572  0.86512181
   0.13445640  0.18355746  0.61108072
   0.85781026  0.16955811  0.86317643
   0.35767578  0.32967775  0.85112161
   0.63726057  0.33084172  0.59654008
   0.85829166  0.84132138  0.82468660
   0.13594142  0.82624165  0.61020509
   0.63908496  0.70958626  0.57706230
   0.35121471  0.70750452  0.91168160
   0.14050570  0.21764398  0.55249021
   0.85087751  0.20387467  0.92305861
   0.35165346  0.29564773  0.91054368
   0.64492181  0.29629959  0.54267407
   0.84948384  0.80822966  0.88769578
   0.13631028  0.78903700  0.62240058
   0.66987106  0.72733583  0.61076696
   0.31853187  0.71972366  0.88025060
   0.17207289  0.23279400  0.58814805
   0.82015568  0.21996331  0.88081357
   0.31993692  0.28062014  0.87960247
   0.67592553  0.28108703  0.58594716
   0.81774520  0.79313170  0.85161065
   0.16624673  0.77012470  0.64926510
   0.67174020  0.76358763  0.66526163
   0.31302886  0.75413330  0.81644443
   0.17597182  0.26799505  0.65274201
   0.81749605  0.25660267  0.84118408
   0.31541777  0.24495901  0.82208593
   0.67915686  0.24434777  0.62249887
   0.81389351  0.75605335  0.81626374
   0.16834779  0.73829975  0.74201790
   0.70082025  0.77746718  0.71284561
   0.28261170  0.76303033  0.77062543
   0.20544115  0.27793965  0.71097078
   0.78889606  0.26919827  0.78499380
   0.28569370  0.23505748  0.76762250
   0.70773649  0.23209956  0.68017459
   0.78441005  0.74330485  0.77053129
   0.19821527  0.72618576  0.78474397
   0.72772642  0.75490892  0.70525158
   0.25775694  0.73766852  0.79169056
   0.23030505  0.25256266  0.70185630
   0.76325817  0.24504450  0.76917335
   0.26118112  0.26090002  0.77311580
   0.73295633  0.25665864  0.70028140
   0.75893706  0.76760587  0.76291471
   0.22554557  0.74652507  0.73794199
   0.69867797  0.70774067  0.59638477
   0.29162811  0.69712291  0.90619327
   0.19927329  0.21063873  0.56995962
   0.79236705  0.19861704  0.87262008
   0.29303695  0.30325233  0.89659922
   0.70336342  0.30293563  0.59890016
   0.79027036  0.81482929  0.85167015
   0.19538648  0.78650327  0.59484654
   0.61677723  0.73163240  0.49775083
   0.37165264  0.73504326  0.97344150
   0.12040649  0.24227517  0.47271169
   0.87064210  0.22795303  0.01490388
   0.37196931  0.27116433  0.98571838
   0.62503221  0.27141211  0.45678906
   0.86728968  0.78368303  0.97787056
   0.10583178  0.77355837  0.65552556
   0.50070902  0.59426897  0.79078609
   0.99649569  0.09942166  0.72664095
   0.49605782  0.40578722  0.74319796
   0.00357360  0.91044584  0.75546360
   0.49773512  0.51986305  0.75856005
   0.00250172  0.02488255  0.75034985
   0.49714344  0.48107243  0.75369245
   0.00355746  0.98608941  0.75403703
   0.55431881  0.62965336  0.06489027
   0.55903644  0.59513890  0.14249452
   0.58773569  0.59053888  0.22613937
   0.61280188  0.61792116  0.21104972
   0.60831421  0.65033905  0.11997963
   0.57831798  0.65592319  0.05137546
   0.39176158  0.60819197  0.31998192
   0.39739860  0.64338821  0.38445235
   0.42985069  0.65231045  0.40878582
   0.45477189  0.62874565  0.34453861
   0.44850157  0.59259234  0.29324689
   0.41604524  0.58333433  0.28377724
   0.08984942  0.08204301  0.23275144
   0.05773805  0.09114681  0.21250859
   0.05253124  0.12559225  0.14663266
   0.07777057  0.14962390  0.09317536
   0.10980185  0.14121656  0.12854775
   0.11439856  0.10644332  0.19574901
   0.94759998  0.12765636  0.44527528
   0.94465979  0.09266896  0.36517453
   0.91568381  0.08556724  0.28451619
   0.88968010  0.11172849  0.29809476
   0.89246707  0.14504412  0.39133642
   0.92242758  0.15287295  0.46111803
   0.42131077  0.33892798  0.46073990
   0.39176007  0.34771539  0.38931673
   0.39049415  0.38087194  0.29983982
   0.41847565  0.40446426  0.27954316
   0.44750330  0.39517955  0.35269726
   0.44802587  0.36220320  0.44306811
   0.61752579  0.37632781  0.22380895
   0.61827661  0.34687430  0.11040953
   0.59024559  0.34057067  0.01001611
   0.56263114  0.36622728  0.03769433
   0.56255549  0.39389037  0.16539831
   0.59022761  0.39808218  0.25614742
   0.94600736  0.85893086  0.44885930
   0.94668026  0.89217771  0.35917635
   0.91856541  0.90254217  0.27904414
   0.88967066  0.88071431  0.29738717
   0.88954316  0.84768161  0.38894916
   0.91836372  0.83703008  0.46183453
   0.11988811  0.89383258  0.26487087
   0.12393338  0.85964764  0.17547090
   0.09800988  0.84660680  0.07976359
   0.06694169  0.86507511  0.08905393
   0.06313928  0.89721857  0.19003144
   0.09029766  0.91141704  0.27001715
   0.58745627  0.59191257  0.75494474
   0.55614412  0.59934552  0.70449719
   0.55090744  0.63253330  0.62641077
   0.57721642  0.65454882  0.56140721
   0.60744635  0.65041489  0.63843291
   0.61143269  0.61840592  0.73497634
   0.38816287  0.61823444  0.77308711
   0.38878863  0.65210301  0.86012581
   0.41765864  0.66204438  0.93766517
   0.44639421  0.64030624  0.90424329
   0.44371466  0.60466471  0.82620684
   0.41399573  0.59522878  0.75910514
   0.08446457  0.10372346  0.72973289
   0.05410097  0.11081262  0.66535835
   0.05010824  0.14463892  0.57771840
   0.07782269  0.16805344  0.54870721
   0.10710519  0.16023164  0.62203146
   0.10965797  0.12756630  0.70978838
   0.88477621  0.11335951  0.76704364
   0.88558217  0.14671534  0.86091818
   0.91431874  0.15540982  0.94360291
   0.94322605  0.13503404  0.89933298
   0.94138367  0.10138447  0.81224533
   0.91145325  0.09022230  0.75069033
   0.41073598  0.40935494  0.74853256
   0.43985815  0.40067864  0.82429807
   0.44100034  0.36772325  0.91261570
   0.41318631  0.34504531  0.93446109
   0.38505997  0.35304382  0.84848479
   0.38439052  0.38573229  0.75597285
   0.58300983  0.40841156  0.71511926
   0.55289691  0.39976549  0.65448175
   0.55033457  0.36538252  0.56928960
   0.57946823  0.34372104  0.52180148
   0.60910398  0.35295828  0.59716470
   0.60946862  0.38569070  0.69169235
   0.88874485  0.89712825  0.74431180
   0.88724894  0.86279162  0.82748542
   0.91463447  0.85213183  0.91288156
   0.94409357  0.87342150  0.90390481
   0.94526691  0.90664703  0.81649609
   0.91678757  0.91818366  0.74335303
   0.07874063  0.84515846  0.55341877
   0.10986694  0.85115646  0.61493490
   0.11555281  0.88394867  0.70731388
   0.09021168  0.91084344  0.73540469
   0.06011141  0.90474438  0.66772209
   0.05531170  0.87161952  0.57784647
   0.72618865  0.71820696  0.12856398
   0.28058362  0.71518039  0.36652885
   0.23194008  0.20580205  0.14670903
   0.77225746  0.20574459  0.33870785
   0.26867291  0.28569774  0.32819039
   0.73751797  0.28417599  0.15539628
   0.76402536  0.79438437  0.33227433
   0.24735733  0.79406208  0.17911495
   0.60135530  0.75274802  0.42995794
   0.38511194  0.76076612  0.02173849
   0.10891530  0.26685384  0.40722469
   0.88260646  0.25134564  0.09163197
   0.38386762  0.24697427  0.05653377
   0.61207921  0.24796507  0.38539223
   0.87561138  0.75958720  0.06419556
   0.07876865  0.76790279  0.69652220
   0.72663058  0.72064604  0.64303435
   0.26217749  0.70542363  0.86359351
   0.22755849  0.21972185  0.62640522
   0.76490942  0.21033799  0.81763606
   0.26454463  0.29409393  0.84397296
   0.73088062  0.29154482  0.65502051
   0.76177356  0.80276174  0.80877366
   0.22382785  0.77588805  0.63988604
   0.59491033  0.74576565  0.92764623
   0.40403093  0.75150973  0.58170056
   0.10862923  0.24544988  0.92525374
   0.89979838  0.24116157  0.59663409
   0.39716381  0.25075644  0.55940188
   0.61706255  0.24112505  0.90032553
   0.88935333  0.74949587  0.56302207
   0.11222951  0.75746764  0.20253325
   0.59207961  0.56329614  0.33063369
   0.63849842  0.61310562  0.29865126
   0.44060170  0.68483801  0.46475951
   0.48419128  0.64714385  0.33742498
   0.02259832  0.14038296  0.13416740
   0.06673831  0.18079772  0.03378682
   0.91158178  0.05719857  0.18211081
   0.86440122  0.10470043  0.20884589
   0.36505188  0.38962150  0.21690456
   0.41609443  0.43246454  0.17907602
   0.58779067  0.31537990  0.90408318
   0.53880075  0.36048339  0.94335500
   0.91775317  0.93058270  0.17793144
   0.86484251  0.89087889  0.21388224
   0.10100713  0.81878035  0.97606331
   0.04456575  0.85053399  0.00021653
   0.52218671  0.64292092  0.57312904
   0.57145078  0.67559263  0.43663181
   0.41920656  0.68878449  0.04879766
   0.47244667  0.65282313  0.97817804
   0.02409539  0.15440324  0.49690213
   0.07528250  0.19496048  0.44471235
   0.91575476  0.18035137  0.06241190
   0.97008685  0.14778505  0.96626982
   0.46625960  0.35556536  0.99342062
   0.41443048  0.31773899  0.03553519
   0.52396539  0.35064111  0.52130432
   0.57561321  0.31693242  0.41786413
   0.91395982  0.82351406  0.00866719
   0.96769316  0.86137806  0.99107924
   0.14213074  0.88917092  0.78786600
   0.09649885  0.93843243  0.83933813
   0.61885402  0.58728379  0.48597416
   0.47507183  0.65578516  0.60109328
   0.03066570  0.15366166  0.89310239
   0.88585205  0.08013606  0.01888920
   0.38630504  0.41237092  0.02496048
   0.50552050  0.32725272  0.98710311
   0.88694173  0.91380906  0.02271607
   0.06538608  0.81758051  0.82880270
   0.53381439  0.65012713  0.32835399
   0.45584600  0.68221680  0.18581245
   0.04343683  0.18026856  0.28911801
   0.94975130  0.15957294  0.19076913
   0.44832289  0.32335250  0.19417923
   0.53085382  0.31242309  0.33667199
   0.94453630  0.83626275  0.17424565
   0.12250338  0.91229110  0.99102545
Direct configuration=     2
   0.58257682  0.52469388  0.08128360
   0.43155494  0.52787828  0.44154289
   0.07300841  0.02678962  0.06643251
   0.92445041  0.02242648  0.45003612
   0.43209135  0.46188993  0.45910757
   0.58238364  0.45850402  0.09030373
   0.92705515  0.95679785  0.45453816
   0.07304742  0.96083988  0.04947231
   0.65464883  0.66435816  0.18836039
   0.35008437  0.65715576  0.33819533
   0.15763854  0.15214590  0.17847979
   0.84628916  0.15494103  0.31457804
   0.34472553  0.34004982  0.31459333
   0.66447100  0.33467783  0.18380344
   0.84201983  0.84311886  0.31848410
   0.17477556  0.85675852  0.20526600
   0.65193850  0.78088965  0.18528356
   0.35760062  0.77410605  0.33742821
   0.15906450  0.27042739  0.15262253
   0.84299193  0.27345796  0.37471268
   0.34163194  0.22103011  0.31482413
   0.66499299  0.21855392  0.13439429
   0.83406548  0.72546947  0.31584664
   0.17188266  0.73327240  0.22834432
   0.70616678  0.80223197  0.27017988
   0.30553860  0.79787157  0.24155344
   0.21264206  0.29270121  0.23855315
   0.79006366  0.29355162  0.27279532
   0.28837838  0.19977291  0.21842903
   0.71725633  0.19793475  0.24387257
   0.78016142  0.70797056  0.21250274
   0.22612701  0.70905740  0.28423088
   0.69673161  0.68073337  0.01829964
   0.30725659  0.67633497  0.47710875
   0.20267445  0.16628959  0.05159993
   0.80107304  0.16765399  0.43941236
   0.29750384  0.32413320  0.43634401
   0.70986164  0.32181290  0.04257899
   0.79445428  0.83053208  0.44437709
   0.21835579  0.83350123  0.09011930
   0.49884151  0.61149094  0.12946066
   0.00345957  0.11401651  0.34575364
   0.50412587  0.36934156  0.25215762
   0.00582631  0.86727404  0.26807572
   0.57251501  0.53235553  0.56893431
   0.42119619  0.53531690  0.92097940
   0.07866984  0.04009327  0.58533816
   0.92961106  0.03672980  0.95777641
   0.42140064  0.46961083  0.93096873
   0.57137957  0.46628362  0.55772106
   0.93147666  0.97086368  0.96535295
   0.08033724  0.97457301  0.59183275
   0.65450859  0.66462463  0.69754867
   0.34037008  0.65778825  0.80676710
   0.15462516  0.17241805  0.67525594
   0.83886137  0.15776498  0.78897826
   0.33791933  0.34061488  0.78284707
   0.65601182  0.34383283  0.66808743
   0.83999525  0.85341289  0.74952604
   0.15890013  0.83955662  0.62708645
   0.65021081  0.78022336  0.67411125
   0.33283202  0.77313396  0.79870201
   0.15566398  0.28641474  0.66305252
   0.83809636  0.27453996  0.85059932
   0.33542781  0.22614336  0.81425448
   0.65886008  0.22606634  0.61071406
   0.83421080  0.73788886  0.82113204
   0.14669322  0.72392950  0.78548161
   0.70333004  0.80523589  0.75926838
   0.27759670  0.78904610  0.71610997
   0.20970033  0.30449387  0.76763960
   0.78589087  0.29719604  0.74908484
   0.28099073  0.20819994  0.71531860
   0.71101173  0.20402159  0.71405351
   0.78051230  0.71495305  0.73763399
   0.20084318  0.70175970  0.85783858
   0.69887370  0.68031930  0.54117510
   0.29430261  0.67100280  0.96675830
   0.19767077  0.18432813  0.50468387
   0.79252242  0.17071053  0.91633769
   0.29506404  0.32996029  0.95807989
   0.70296012  0.33108342  0.55874224
   0.79154906  0.84327800  0.89272220
   0.19540055  0.80960270  0.51053286
   0.50247347  0.62274917  0.82387422
   0.99530093  0.12826722  0.69888034
   0.49536064  0.37659134  0.73470322
   0.00758407  0.88182090  0.76345919
   0.53268278  0.63387692  0.99693913
   0.57370138  0.68092555  0.98615933
   0.36724503  0.60059210  0.29448297
   0.41012367  0.55638388  0.23621525
   0.09541408  0.05611482  0.28727259
   0.13873636  0.09903230  0.22351944
   0.96981072  0.13448656  0.50468266
   0.92567820  0.17789530  0.53427681
   0.42285761  0.31490005  0.53797756
   0.46981131  0.35555121  0.50550230
   0.63822465  0.38139390  0.29952811
   0.59081368  0.41918594  0.35487914
   0.96687784  0.85142232  0.51752056
   0.91877824  0.81240175  0.53513580
   0.13869127  0.90377763  0.34504431
   0.08726097  0.93619079  0.34636426
   0.59135822  0.56817442  0.83069251
   0.63358474  0.61543990  0.80091884
   0.36614437  0.61050712  0.71323748
   0.41209892  0.56972017  0.68851426
   0.08712917  0.07939901  0.80335663
   0.13224452  0.12152336  0.76598806
   0.86336217  0.10654932  0.69928228
   0.91047699  0.06566123  0.67193571
   0.41006241  0.43339118  0.67145464
   0.36350996  0.39163813  0.68412396
   0.58531053  0.43315799  0.79135674
   0.63151970  0.39333020  0.75153732
   0.86868241  0.90561261  0.67171919
   0.91719353  0.94390269  0.67880917
   0.07467172  0.82217859  0.46756664
   0.03251848  0.86754322  0.51970276
   0.53234187  0.56915142  0.16364886
   0.47526379  0.56823903  0.25215700
   0.02988231  0.06831763  0.25508644
   0.97263304  0.06827837  0.34301668
   0.47694091  0.41667864  0.31351208
   0.53357538  0.41588863  0.20830678
   0.97609579  0.91381383  0.32891717
   0.03216209  0.91596550  0.22213976
   0.53387326  0.53106373  0.18426228
   0.47694372  0.53138029  0.29557276
   0.02904255  0.03058901  0.22522077
   0.97258805  0.02975031  0.33949548
   0.47790071  0.45501105  0.32130099
   0.53407681  0.45410473  0.20233826
   0.97502879  0.95223461  0.33946662
   0.03017822  0.95409849  0.21293883
   0.56141758  0.51050936  0.13141637
   0.45168182  0.51260963  0.38414945
   0.05429302  0.01159442  0.13507795
   0.94619452  0.00867748  0.40224047
   0.45204433  0.47588102  0.39500348
   0.56133462  0.47366054  0.13742487
   0.94771384  0.97182927  0.40507533
   0.05478074  0.97478552  0.12920348
   0.63454687  0.67542263  0.12391581
   0.37123880  0.66866920  0.39455259
   0.13740599  0.16479364  0.12163825
   0.86496041  0.16797647  0.38592670
   0.36320035  0.32586626  0.37955987
   0.64544672  0.32345264  0.10850261
   0.85992653  0.82784867  0.38236946
   0.15369540  0.84032179  0.17909360
   0.63871109  0.71043329  0.07387823
   0.36755354  0.70440766  0.44029527
   0.14389046  0.19966495  0.07340335
   0.85818531  0.20254209  0.44089826
   0.35572229  0.29081978  0.41912697
   0.65171275  0.28880739  0.04999260
   0.85094223  0.79346869  0.42404346
   0.15853128  0.80366140  0.16402418
   0.66957175  0.72800977  0.10452375
   0.33715142  0.72206411  0.40395192
   0.17567341  0.21555256  0.10616714
   0.82707508  0.21809794  0.40466190
   0.32458380  0.27515434  0.37628893
   0.68248292  0.27288640  0.09184976
   0.81911521  0.78012845  0.38121897
   0.19007212  0.78679922  0.17078169
   0.67286152  0.76347978  0.16751939
   0.33595697  0.75764135  0.34640569
   0.17951932  0.25222070  0.15031189
   0.82304440  0.25458639  0.36634952
   0.32111488  0.23912403  0.32070282
   0.68545674  0.23677783  0.13967689
   0.81428721  0.74462857  0.32185582
   0.19310932  0.75030710  0.21384856
   0.70265534  0.77526777  0.21594450
   0.30730308  0.77083494  0.29240278
   0.20909360  0.26465510  0.19875880
   0.79405588  0.26570864  0.30852077
   0.29184950  0.22731295  0.26554060
   0.71407750  0.22540132  0.20092741
   0.78475595  0.73495238  0.26354526
   0.22285637  0.73682992  0.24574718
   0.72871085  0.75135913  0.20143204
   0.28020305  0.74838476  0.29875892
   0.23475199  0.24037871  0.20203468
   0.76952156  0.24024996  0.28885980
   0.26611034  0.25159133  0.26606912
   0.73934519  0.25024627  0.21372770
   0.76023517  0.76077589  0.26643116
   0.24932224  0.76023155  0.23823775
   0.69773719  0.70744553  0.08052221
   0.30808146  0.70285867  0.41789477
   0.20354548  0.19422161  0.09967007
   0.80000021  0.19550276  0.39615957
   0.29678660  0.29662054  0.38235719
   0.71013346  0.29465155  0.09486655
   0.79251022  0.80333799  0.38811153
   0.21872885  0.80641659  0.14328916
   0.61454675  0.73021203  0.99661973
   0.38974707  0.72820086  0.51649739
   0.12269037  0.22350627  0.99567478
   0.88085673  0.22418375  0.52483897
   0.37825296  0.26831967  0.49436757
   0.63071971  0.26471945  0.96684556
   0.87210864  0.76914850  0.49831013
   0.13216302  0.77919230  0.17505617
   0.50214298  0.58455590  0.17639387
   0.00196737  0.08537355  0.31807533
   0.50491934  0.39880703  0.25683813
   0.00468539  0.89676731  0.27497625
   0.50563974  0.51213790  0.24492378
   0.00118843  0.01108409  0.28252205
   0.50591872  0.47366161  0.25742746
   0.00211587  0.97241512  0.27924190
   0.52834128  0.57595418  0.73689382
   0.47062614  0.57875692  0.81082902
   0.02633426  0.08439545  0.69333864
   0.96897290  0.07970643  0.78383373
   0.46822825  0.42388083  0.79600767
   0.52475431  0.42282216  0.69541653
   0.97463021  0.92745139  0.79834161
   0.03195801  0.92909962  0.70861020
   0.52688847  0.53811258  0.70982705
   0.46930514  0.54014755  0.80842608
   0.03021820  0.04579595  0.69448647
   0.97337847  0.04234787  0.80271773
   0.46848329  0.46234151  0.80714443
   0.52515926  0.46124776  0.69370642
   0.97562881  0.96662078  0.81012269
   0.03223540  0.96706933  0.70045458
   0.55268128  0.51785106  0.63174701
   0.44195503  0.52035588  0.86890885
   0.05791114  0.02544591  0.63593532
   0.94832885  0.02246137  0.88380363
   0.44194595  0.48341749  0.87152994
   0.55177225  0.48103084  0.62359742
   0.94945447  0.98557566  0.88922769
   0.05873098  0.98830680  0.63798471
   0.63420230  0.67505099  0.63159425
   0.35972328  0.67272360  0.86502022
   0.13448878  0.18351441  0.61110770
   0.85778113  0.16952226  0.86322051
   0.35766223  0.32978069  0.85073955
   0.63725382  0.33082577  0.59649643
   0.85831193  0.84150183  0.82398678
   0.13599168  0.82617561  0.61014386
   0.63907578  0.70959600  0.57696509
   0.35124692  0.70742540  0.91189546
   0.14051342  0.21762001  0.55232383
   0.85093857  0.20387203  0.92311743
   0.35137410  0.29590174  0.90843412
   0.64491638  0.29628898  0.54268983
   0.84923919  0.80859634  0.88480637
   0.13638465  0.78901923  0.62226415
   0.66987457  0.72731909  0.61079414
   0.31849087  0.71982546  0.88022534
   0.17207935  0.23276996  0.58818799
   0.82017690  0.21997520  0.88086324
   0.31988850  0.28058232  0.87943833
   0.67591261  0.28109839  0.58589180
   0.81773805  0.79305886  0.85143194
   0.16625990  0.77017916  0.64920077
   0.67176311  0.76359823  0.66520579
   0.31304047  0.75421630  0.81624021
   0.17598555  0.26800651  0.65282024
   0.81749050  0.25659519  0.84125608
   0.31543213  0.24495825  0.82201122
   0.67918018  0.24434819  0.62249626
   0.81386733  0.75603851  0.81614909
   0.16833388  0.73835332  0.74187027
   0.70084533  0.77745478  0.71287159
   0.28267817  0.76305817  0.77059372
   0.20540701  0.27795865  0.71091845
   0.78889200  0.26920233  0.78494787
   0.28575511  0.23504461  0.76771819
   0.70776064  0.23212219  0.68020753
   0.78442246  0.74327930  0.77054602
   0.19820096  0.72617724  0.78470241
   0.72774646  0.75488941  0.70524416
   0.25782341  0.73767480  0.79194865
   0.23027404  0.25254114  0.70186694
   0.76322730  0.24501927  0.76912096
   0.26121075  0.26088445  0.77307834
   0.73295129  0.25665901  0.70021065
   0.75894488  0.76757297  0.76278045
   0.22555787  0.74651411  0.73786160
   0.69864741  0.70773057  0.59622947
   0.29163914  0.69710426  0.90613138
   0.19926138  0.21060434  0.56993306
   0.79235704  0.19863458  0.87271500
   0.29302767  0.30322924  0.89662967
   0.70336086  0.30293941  0.59887759