       N       E                     dE             d eps       ncg     rms          rms(c)
DAV:   1     0.237804708177E+05    0.23780E+05   -0.57189E+05 18192   0.217E+03
DAV:   2     0.795520235076E+04   -0.15825E+05   -0.14663E+05 16216   0.629E+02
DAV:   3     0.191373541422E+04   -0.60415E+04   -0.56779E+04 19448   0.331E+02
DAV:   4    -0.567068744155E+03   -0.24808E+04   -0.23275E+04 22160   0.174E+02
DAV:   5    -0.132703386120E+04   -0.75997E+03   -0.72524E+03 31944   0.106E+02    0.163E+02
RMM:   6    -0.708435268971E+03    0.61860E+03   -0.26640E+03 26947   0.181E+02    0.836E+01
RMM:   7    -0.964175240553E+03   -0.25574E+03   -0.31866E+03 31244   0.102E+02    0.140E+02
RMM:   8    -0.111998779137E+04   -0.15581E+03   -0.22814E+03 31239   0.627E+01    0.134E+02
RMM:   9    -0.125816327312E+04   -0.13818E+03   -0.14159E+03 28766   0.469E+01    0.124E+02
RMM:  10    -0.111578801326E+04    0.14238E+03   -0.93182E+02 29553   0.498E+01    0.100E+02
RMM:  11    -0.116823296323E+04   -0.52445E+02   -0.64108E+02 30231   0.329E+01    0.660E+01
RMM:  12    -0.124154738490E+04   -0.73314E+02   -0.52715E+02 29331   0.266E+01    0.891E+01
RMM:  13    -0.123041866594E+04    0.11129E+02   -0.24826E+02 29358   0.154E+01    0.693E+01
RMM:  14    -0.118515957825E+04    0.45259E+02   -0.87396E+01 28952   0.132E+01    0.592E+01
RMM:  15    -0.117683388956E+04    0.83257E+01   -0.10990E+02 29297   0.110E+01    0.572E+01
RMM:  16    -0.117040716549E+04    0.64267E+01   -0.17469E+02 29330   0.140E+01    0.689E+01
RMM:  17    -0.113894603921E+04    0.31461E+02   -0.15593E+01 29042   0.923E+00    0.275E+01
RMM:  18    -0.114658135018E+04   -0.76353E+01   -0.40230E+01 29108   0.678E+00    0.411E+01
RMM:  19    -0.115782988427E+04   -0.11249E+02   -0.37578E+01 29475   0.518E+00    0.602E+01
RMM:  20    -0.115082902849E+04    0.70009E+01   -0.13653E+01 29907   0.411E+00    0.629E+01
RMM:  21    -0.114906668854E+04    0.17623E+01    0.23772E+00 30312   0.285E+00    0.498E+01
RMM:  22    -0.114508443996E+04    0.39822E+01   -0.75747E-01 29544   0.259E+00    0.358E+01
RMM:  23    -0.114955348436E+04   -0.44690E+01   -0.77235E+00 29387   0.264E+00    0.478E+01
RMM:  24    -0.114616819354E+04    0.33853E+01    0.17560E+00 28542   0.254E+00    0.370E+01
RMM:  25    -0.114749806578E+04   -0.13299E+01   -0.15882E+00 28917   0.274E+00    0.440E+01
RMM:  26    -0.114791718406E+04   -0.41912E+00   -0.16036E-01 30486   0.175E+00    0.441E+01
RMM:  27    -0.114811789174E+04   -0.20071E+00   -0.49556E+00 28926   0.210E+00    0.369E+01
RMM:  28    -0.114632932537E+04    0.17886E+01   -0.17945E+00 29109   0.213E+00    0.288E+01
RMM:  29    -0.114443892930E+04    0.18904E+01    0.18874E+00 28934   0.198E+00    0.295E+01
RMM:  30    -0.115025810075E+04   -0.58192E+01   -0.70937E+00 30296   0.250E+00    0.583E+01
RMM:  31    -0.114911248857E+04    0.11456E+01   -0.23661E-02 29028   0.157E+00    0.570E+01
RMM:  32    -0.114496080615E+04    0.41517E+01   -0.68462E+00 31306   0.324E+00    0.323E+01
RMM:  33    -0.114411768995E+04    0.84312E+00   -0.20917E+00 31220   0.271E+00    0.319E+01
RMM:  34    -0.114430827872E+04   -0.19059E+00   -0.27885E+00 30188   0.217E+00    0.306E+01
RMM:  35    -0.114382392707E+04    0.48435E+00    0.68381E-01 30104   0.140E+00    0.305E+01
RMM:  36    -0.114478478958E+04   -0.96086E+00   -0.16038E+00 30150   0.175E+00    0.350E+01
RMM:  37    -0.114477456196E+04    0.10228E-01   -0.49614E-01 29238   0.127E+00    0.332E+01
RMM:  38    -0.114505810054E+04   -0.28354E+00   -0.76285E-01 29165   0.112E+00    0.345E+01
RMM:  39    -0.114506701356E+04   -0.89130E-02   -0.58883E-01 28499   0.104E+00    0.343E+01
RMM:  40    -0.114593448196E+04   -0.86747E+00   -0.27689E+00 32192   0.235E+00    0.380E+01
RMM:  41    -0.114352802391E+04    0.24065E+01    0.81782E-01 31380   0.180E+00    0.312E+01
RMM:  42    -0.114272023488E+04    0.80779E+00   -0.35449E-02 30518   0.135E+00    0.280E+01
RMM:  43    -0.114292640830E+04   -0.20617E+00   -0.15428E-01 30394   0.118E+00    0.356E+01
RMM:  44    -0.114209063593E+04    0.83577E+00    0.29896E-01 29261   0.103E+00    0.307E+01
RMM:  45    -0.114182057419E+04    0.27006E+00   -0.42757E-01 29499   0.997E-01    0.294E+01
RMM:  46    -0.114182859033E+04   -0.80161E-02   -0.46838E-01 27284   0.847E-01    0.299E+01
RMM:  47    -0.114198584049E+04   -0.15725E+00   -0.43927E-01 27187   0.829E-01    0.300E+01
RMM:  48    -0.114174996184E+04    0.23588E+00   -0.29467E-01 30224   0.107E+00    0.327E+01
RMM:  49    -0.114163338749E+04    0.11657E+00   -0.33127E-01 30474   0.994E-01    0.367E+01
RMM:  50    -0.114144367184E+04    0.18972E+00   -0.17658E-01 28223   0.835E-01    0.356E+01
RMM:  51    -0.114000384230E+04    0.14398E+01   -0.59019E+00 32312   0.331E+00    0.308E+01
RMM:  52    -0.114047864600E+04   -0.47480E+00   -0.21525E+00 31865   0.153E+00    0.330E+01
RMM:  53    -0.113890727044E+04    0.15714E+01   -0.48982E-01 31533   0.159E+00    0.253E+01
RMM:  54    -0.113746792861E+04    0.14393E+01   -0.59302E-01 31503   0.153E+00    0.174E+01
RMM:  55    -0.113738723958E+04    0.80689E-01   -0.14605E+00 31345   0.161E+00    0.205E+01
RMM:  56    -0.113756208001E+04   -0.17484E+00   -0.16002E+00 31555   0.142E+00    0.176E+01
RMM:  57    -0.113764863213E+04   -0.86552E-01   -0.60664E-01 30279   0.104E+00    0.177E+01
RMM:  58    -0.113775867249E+04   -0.11004E+00   -0.57946E-01 29615   0.954E-01    0.184E+01
RMM:  59    -0.113765261213E+04    0.10606E+00   -0.42622E-01 29605   0.970E-01    0.177E+01
RMM:  60    -0.113756303102E+04    0.89581E-01   -0.14852E-01 29100   0.894E-01    0.175E+01
RMM:  61    -0.113940296780E+04   -0.18399E+01   -0.38307E+00 31160   0.154E+00    0.311E+01
RMM:  62    -0.113824101298E+04    0.11620E+01   -0.90610E-02 30428   0.117E+00    0.222E+01
RMM:  63    -0.113776723114E+04    0.47378E+00    0.36457E-01 30121   0.915E-01    0.191E+01
RMM:  64    -0.113758282456E+04    0.18441E+00   -0.48952E-03 30064   0.903E-01    0.183E+01
RMM:  65    -0.113757913834E+04    0.36862E-02   -0.49041E-01 28981   0.726E-01    0.182E+01
RMM:  66    -0.116225809999E+04   -0.24679E+02   -0.44122E+01 32270   0.471E+00    0.721E+01
RMM:  67    -0.113695596942E+04    0.25302E+02   -0.32264E+00 31940   0.261E+00    0.158E+01
RMM:  68    -0.113664144785E+04    0.31452E+00   -0.23946E-01 31578   0.144E+00    0.170E+01
RMM:  69    -0.113630082109E+04    0.34063E+00    0.27603E-01 30725   0.116E+00    0.164E+01
RMM:  70    -0.113598166519E+04    0.31916E+00    0.61269E-01 30707   0.915E-01    0.142E+01
RMM:  71    -0.113745546049E+04   -0.14738E+01   -0.13127E+00 31941   0.148E+00    0.248E+01
RMM:  72    -0.113669740781E+04    0.75805E+00   -0.31008E-01 31738   0.135E+00    0.173E+01
RMM:  73    -0.113632966958E+04    0.36774E+00    0.16127E-01 31450   0.106E+00    0.156E+01
RMM:  74    -0.113634514376E+04   -0.15474E-01   -0.29512E-01 28866   0.785E-01    0.155E+01
RMM:  75    -0.113636846744E+04   -0.23324E-01    0.13783E-01 29191   0.786E-01    0.153E+01
RMM:  76    -0.113706280550E+04   -0.69434E+00   -0.22523E+00 31240   0.200E+00    0.224E+01
RMM:  77    -0.113660888550E+04    0.45392E+00    0.41848E-01 30880   0.115E+00    0.139E+01
RMM:  78    -0.113658374413E+04    0.25141E-01    0.12909E-01 30518   0.922E-01    0.151E+01
RMM:  79    -0.113660060789E+04   -0.16864E-01   -0.24290E-01 29427   0.706E-01    0.152E+01
RMM:  80    -0.113656957828E+04    0.31030E-01    0.67103E-02 26826   0.619E-01    0.151E+01
RMM:  81    -0.113732242685E+04   -0.75285E+00   -0.15024E+00 31625   0.138E+00    0.224E+01
RMM:  82    -0.113731704917E+04    0.53777E-02   -0.23382E-01 30313   0.105E+00    0.233E+01
RMM:  83    -0.113706151189E+04    0.25554E+00   -0.26110E-01 30259   0.905E-01    0.211E+01
RMM:  84    -0.113707049370E+04   -0.89818E-02   -0.78260E-01 29611   0.769E-01    0.211E+01
RMM:  85    -0.113692533048E+04    0.14516E+00   -0.22243E-01 29405   0.748E-01    0.209E+01
RMM:  86    -0.113729052674E+04   -0.36520E+00   -0.20917E-01 30023   0.896E-01    0.219E+01
RMM:  87    -0.113724025706E+04    0.50270E-01    0.13909E-01 29479   0.728E-01    0.221E+01
RMM:  88    -0.113722790802E+04    0.12349E-01   -0.37548E-01 26900   0.597E-01    0.218E+01
RMM:  89    -0.113700682146E+04    0.22109E+00   -0.18675E-01 29819   0.820E-01    0.207E+01
RMM:  90    -0.113651578443E+04    0.49104E+00    0.48863E-01 30186   0.904E-01    0.171E+01
RMM:  91    -0.113717101073E+04   -0.65523E+00   -0.14521E+00 31695   0.150E+00    0.215E+01
RMM:  92    -0.113669938007E+04    0.47163E+00   -0.12966E-01 31197   0.110E+00    0.177E+01
RMM:  93    -0.113623411894E+04    0.46526E+00    0.43873E-02 31735   0.965E-01    0.151E+01
RMM:  94    -0.113615799344E+04    0.76125E-01   -0.80422E-02 29711   0.764E-01    0.144E+01
RMM:  95    -0.113605460433E+04    0.10339E+00   -0.14669E-01 29345   0.690E-01    0.136E+01
RMM:  96    -0.113800966592E+04   -0.19551E+01   -0.66069E+00 32295   0.224E+00    0.298E+01
RMM:  97    -0.113695576492E+04    0.10539E+01   -0.46549E-02 31855   0.141E+00    0.196E+01
RMM:  98    -0.113642348082E+04    0.53228E+00    0.11785E-01 31565   0.104E+00    0.173E+01
RMM:  99    -0.113595229530E+04    0.47119E+00   -0.22718E-01 30767   0.106E+00    0.147E+01
RMM: 100    -0.113596336011E+04   -0.11065E-01   -0.28809E-01 29649   0.739E-01    0.145E+01
RMM: 101    -0.113900031950E+04   -0.30370E+01   -0.54349E+00 31935   0.187E+00    0.432E+01
RMM: 102    -0.113649331998E+04    0.25070E+01    0.64915E-01 31688   0.134E+00    0.148E+01
RMM: 103    -0.113581414548E+04    0.67917E+00    0.66327E-01 31164   0.988E-01    0.121E+01
RMM: 104    -0.113567294995E+04    0.14120E+00    0.25737E-02 30507   0.761E-01    0.114E+01
RMM: 105    -0.113573964131E+04   -0.66691E-01   -0.50887E-02 30093   0.773E-01    0.118E+01
RMM: 106    -0.114398730279E+04   -0.82477E+01   -0.10422E+01 31429   0.245E+00    0.639E+01
RMM: 107    -0.113610544188E+04    0.78819E+01   -0.31769E-03 31453   0.160E+00    0.169E+01
RMM: 108    -0.113563819919E+04    0.46724E+00    0.77455E-01 30637   0.916E-01    0.109E+01
RMM: 109    -0.113549548664E+04    0.14271E+00    0.32371E-01 29788   0.730E-01    0.990E+00
RMM: 110    -0.113545098891E+04    0.44498E-01    0.43914E-02 29663   0.635E-01    0.931E+00
RMM: 111    -0.113593887925E+04   -0.48789E+00   -0.70669E-01 31675   0.936E-01    0.211E+01
RMM: 112    -0.113556619735E+04    0.37268E+00    0.21528E-01 29701   0.703E-01    0.135E+01
RMM: 113    -0.113553923821E+04    0.26959E-01   -0.34036E-01 29377   0.646E-01    0.148E+01
RMM: 114    -0.113545592811E+04    0.83310E-01   -0.42044E-02 28280   0.564E-01    0.131E+01
RMM: 115    -0.113519174446E+04    0.26418E+00    0.18666E-01 30686   0.806E-01    0.100E+01
RMM: 116    -0.113523004489E+04   -0.38300E-01   -0.35095E-01 30196   0.922E-01    0.136E+01
RMM: 117    -0.113513410425E+04    0.95941E-01    0.23741E-02 29745   0.709E-01    0.112E+01
RMM: 118    -0.113512182925E+04    0.12275E-01   -0.46579E-02 29561   0.639E-01    0.109E+01
RMM: 119    -0.113511807925E+04    0.37500E-02   -0.10324E-01 28456   0.559E-01    0.110E+01
RMM: 120    -0.113508538447E+04    0.32695E-01   -0.16764E-01 29192   0.588E-01    0.110E+01
RMM: 121    -0.113637163316E+04   -0.12862E+01   -0.14409E+00 32014   0.142E+00    0.256E+01
RMM: 122    -0.113573157325E+04    0.64006E+00    0.12174E-02 31238   0.975E-01    0.151E+01
RMM: 123    -0.113542678032E+04    0.30479E+00    0.17753E-01 30573   0.787E-01    0.119E+01
RMM: 124    -0.113530480658E+04    0.12197E+00    0.93070E-02 30181   0.734E-01    0.114E+01
RMM: 125    -0.113527055028E+04    0.34256E-01   -0.10177E-01 29557   0.625E-01    0.114E+01
RMM: 126    -0.113523803541E+04    0.32515E-01   -0.58645E-02 30023   0.714E-01    0.100E+01
RMM: 127    -0.113514831270E+04    0.89723E-01    0.17401E-01 30109   0.669E-01    0.103E+01
RMM: 128    -0.113512509729E+04    0.23215E-01   -0.10994E-01 30034   0.630E-01    0.112E+01
RMM: 129    -0.113516281507E+04   -0.37718E-01   -0.24120E-01 30063   0.630E-01    0.119E+01
RMM: 130    -0.113512240167E+04    0.40413E-01   -0.16002E-01 29780   0.606E-01    0.110E+01
RMM: 131    -0.113542902308E+04   -0.30662E+00   -0.38114E-01 30707   0.999E-01    0.123E+01
RMM: 132    -0.113524638363E+04    0.18264E+00    0.67368E-02 30043   0.826E-01    0.102E+01
RMM: 133    -0.113522715957E+04    0.19224E-01   -0.45287E-02 30018   0.728E-01    0.105E+01
RMM: 134    -0.113522370317E+04    0.34564E-02   -0.24298E-01 29226   0.628E-01    0.101E+01
RMM: 135    -0.113522969979E+04   -0.59966E-02   -0.21270E-01 26529   0.517E-01    0.101E+01
RMM: 136    -0.113550486629E+04   -0.27517E+00   -0.16583E+00 32040   0.128E+00    0.131E+01
RMM: 137    -0.113524628118E+04    0.25859E+00    0.10993E-01 31785   0.972E-01    0.101E+01
RMM: 138    -0.113513933878E+04    0.10694E+00    0.20432E-01 30646   0.704E-01    0.102E+01
RMM: 139    -0.113514209939E+04   -0.27606E-02   -0.88966E-02 26427   0.504E-01    0.103E+01
RMM: 140    -0.113513503606E+04    0.70633E-02   -0.91215E-02 22381   0.459E-01    0.103E+01
RMM: 141    -0.114362999820E+04   -0.84950E+01   -0.15073E+01 31503   0.266E+00    0.561E+01
RMM: 142    -0.113531424251E+04    0.83158E+01   -0.26463E-01 31502   0.152E+00    0.124E+01
RMM: 143    -0.113515180580E+04    0.16244E+00    0.41305E-01 29924   0.887E-01    0.102E+01
RMM: 144    -0.113514263592E+04    0.91699E-02    0.27375E-02 29615   0.671E-01    0.104E+01
RMM: 145    -0.113509841318E+04    0.44223E-01   -0.40138E-02 28044   0.562E-01    0.993E+00
RMM: 146    -0.114340725063E+04   -0.83088E+01   -0.12120E+01 31619   0.227E+00    0.608E+01
RMM: 147    -0.113520433527E+04    0.82029E+01   -0.12757E+00 31424   0.166E+00    0.104E+01
RMM: 148    -0.113503028963E+04    0.17405E+00    0.30266E-01 30258   0.905E-01    0.885E+00
RMM: 149    -0.113496197402E+04    0.68316E-01    0.17539E-01 29809   0.691E-01    0.859E+00
RMM: 150    -0.113487828458E+04    0.83689E-01    0.75340E-02 29945   0.651E-01
   1 F= -.11659173E+04 E0= -.11653124E+04  d E =-.120978E+01  mag=    -1.4137
