 vasp.6.3.2 27Jun22 (build Sep  5 2022 18:50:32) complex                         
 executed on              LinuxNV date 2023.01.21  23:44:29
 running    8 mpi-ranks, with   16 threads/rank
 distrk:  each k-point on    8 cores,    1 groups
 distr:  one band on NCORE=   1 cores,    8 groups


--------------------------------------------------------------------------------------------------------


 INCAR:
   ISPIN = 2        (Spin polarised DFT)
   MAGMOM = 16*4.0 16*-4.0 96*0.0 32*0.0          (Set this parameters manually)
   LASPH = .TRUE.    (Non-spherical elements, d/f convergence)
   GGA_COMPAT = .FALSE.   (Apply spherical cutoff on gradient field)
   VOSKOWN = 1        (Enhances the magnetic moments and the magnetic energies)
   LMAXMIX = 6        (For d elements increase LMAXMIX to 4, f: LMAXMIX \= 6)
   LORBIT = 11
   IDIPOL = 3
   LDIPOL = .True.
   LDAU = .TRUE.        (Activate DFT+U)
   LDATYPE = 2            (Dudarev, only U-J matters)
   LDAUL = 2 -1 -1        (Orbitals for each species)
   LDAUU = 4.5  0 0        (U for each species)
   LDAUJ = 0  0 0        (J for each species)
   LMAXMIX = 4            (Mixing cut-off, 4-d, 6-f)
   LREAL = .FALSE.       (Projection operators: automatic)
   ENCUT = 520        (Cut-off energy for plane wave basis set, in eV)
   PREC = Accurate   (Precision level: Normal or Accurate, set Accurate when perform structure lattice relaxation calculation)
   LWAVE = .TRUE.        (Write WAVECAR or not)
   LCHARG = .TRUE.        (Write CHGCAR or not)
   ADDGRID = .TRUE.        (Increase grid, helps GGA convergence)
   ALGO = Fast
   IVDW = 12
   ISMEAR = -1            (Gaussian smearing, metals:1)
   SIGMA = 0.05         (Smearing value in eV, metals:0.2)
   NELM = 150           (Max electronic SCF steps)
   NELMIN = 6            (Min electronic SCF steps)
   EDIFF = 1E-04        (SCF energy convergence, in eV)
   NSW = 0          (Max ionic steps)
   IBRION = 2            (Algorithm: 0-MD, 1-Quasi-New, 2-CG)
   ISIF = 2            (Stress/relaxation: 2-Ions, 3-Shape/Ions/V, 4-Shape/Ions)
   EDIFFG = -1E-02        (Ionic convergence, eV/AA)
   ISYM = 2            (Symmetry: 0\=none, 2\=GGA, 3\=hybrids)

 POTCAR:    PAW_PBE Mn_pv 02Aug2007               
 POTCAR:    PAW_PBE O 08Apr2002                   
 POTCAR:    PAW_PBE La 06Sep2000                  
 POTCAR:    PAW_PBE Mn_pv 02Aug2007               
   SHA256 =  c79df11ab18a0e3347296df6ded47bb5f18b2e4fbd621d0b5280d2eae24c30a0 Mn_pv/POTCAR          
   COPYR  = (c) Copyright 02Aug2007 Georg Kresse                                                    
   COPYR  = This file is part of the software VASP. Any use, copying, and all other rights are regul
   COPYR  = If you do not have a valid VASP license, you may not use, copy or distribute this file. 
   VRHFIN =Mn: 3p4s3d                                                                               
   LEXCH  = PE                                                                                      
   EATOM  =  2025.2664 eV,  148.8529 Ry                                                             
                                                                                                    
   TITEL  = PAW_PBE Mn_pv 02Aug2007                                                                 
   LULTRA =        F    use ultrasoft PP ?                                                          
   IUNSCR =        1    unscreen: 0-lin 1-nonlin 2-no                                               
   RPACOR =    2.080    partial core radius                                                         
   POMASS =   54.938; ZVAL   =   13.000    mass and valenz                                          
   RCORE  =    2.300    outmost cutoff radius                                                       
   RWIGS  =    2.500; RWIGS  =    1.323    wigner-seitz radius (au A)                               
   ENMAX  =  269.864; ENMIN  =  202.398 eV                                                          
   ICORE  =        3    local potential                                                             
   LCOR   =        T    correct aug charges                                                         
   LPAW   =        T    paw PP                                                                      
   EAUG   =  569.085                                                                                
   DEXC   =    0.000                                                                                
   RMAX   =    2.343    core radius for proj-oper                                                   
   RAUG   =    1.300    factor for augmentation sphere                                              
   RDEP   =    2.338    radius for radial grids                                                     
   RDEPT  =    1.798    core radius for aug-charge                                                  
                                                                                                    
   Atomic configuration                                                                             
    8 entries                                                                                       
     n  l   j            E        occ.                                                              
     1  0  0.50     -6424.8287   2.0000                                                             
     2  0  0.50      -739.1154   2.0000                                                             
     2  1  1.50      -625.3949   6.0000                                                             
     3  0  0.50       -81.6100   2.0000                                                             
     3  1  1.50       -50.4667   6.0000                                                             
     3  2  2.50        -3.3745   6.0000                                                             
     4  0  0.50        -4.1331   1.0000                                                             
     4  3  2.50        -1.3606   0.0000                                                             
   Description                                                                                      
     l       E           TYP  RCUT    TYP  RCUT                                                     
     1    -50.4666628     23  2.000                                                                 
     1     -1.3605826     23  2.000                                                                 
     2     -3.3744729     23  2.300                                                                 
     2     -4.7350555     23  2.300                                                                 
     0     -4.1331431     23  2.300                                                                 
     0      7.6656591     23  2.300                                                                 
     3      9.5240782     23  2.300                                                                 
  local pseudopotential read in
  partial core-charges read in
  partial kinetic energy density read in
  atomic valenz-charges read in
  non local Contribution for L=            1  read in
    real space projection operators read in
  non local Contribution for L=            1  read in
    real space projection operators read in
  non local Contribution for L=            2  read in
    real space projection operators read in
  non local Contribution for L=            2  read in
    real space projection operators read in
  non local Contribution for L=            0  read in
    real space projection operators read in
  non local Contribution for L=            0  read in
    real space projection operators read in
    PAW grid and wavefunctions read in
 
   number of l-projection  operators is LMAX  =            6
   number of lm-projection operators is LMMAX =           18
 
 POTCAR:    PAW_PBE O 08Apr2002                   
   SHA256 =  818f92134a0a090dccd8ba1447fa70422a3b330e708bb4f08108d8ae51209ddf O/POTCAR              
   COPYR  = (c) Copyright 08Apr2002 Georg Kresse                                                    
   COPYR  = This file is part of the software VASP. Any use, copying, and all other rights are regul
   COPYR  = If you do not have a valid VASP license, you may not use, copy or distribute this file. 
   VRHFIN =O: s2p4                                                                                  
   LEXCH  = PE                                                                                      
   EATOM  =   432.3788 eV,   31.7789 Ry                                                             
                                                                                                    
   TITEL  = PAW_PBE O 08Apr2002                                                                     
   LULTRA =        F    use ultrasoft PP ?                                                          
   IUNSCR =        1    unscreen: 0-lin 1-nonlin 2-no                                               
   RPACOR =    1.200    partial core radius                                                         
   POMASS =   16.000; ZVAL   =    6.000    mass and valenz                                          
   RCORE  =    1.520    outmost cutoff radius                                                       
   RWIGS  =    1.550; RWIGS  =    0.820    wigner-seitz radius (au A)                               
   ENMAX  =  400.000; ENMIN  =  300.000 eV                                                          
   ICORE  =        2    local potential                                                             
   LCOR   =        T    correct aug charges                                                         
   LPAW   =        T    paw PP                                                                      
   EAUG   =  605.392                                                                                
   DEXC   =    0.000                                                                                
   RMAX   =    1.553    core radius for proj-oper                                                   
   RAUG   =    1.300    factor for augmentation sphere                                              
   RDEP   =    1.550    radius for radial grids                                                     
   RDEPT  =    1.329    core radius for aug-charge                                                  
                                                                                                    
   Atomic configuration                                                                             
    4 entries                                                                                       
     n  l   j            E        occ.                                                              
     1  0  0.50      -514.6923   2.0000                                                             
     2  0  0.50       -23.9615   2.0000                                                             
     2  1  0.50        -9.0305   4.0000                                                             
     3  2  1.50        -9.5241   0.0000                                                             
   Description                                                                                      
     l       E           TYP  RCUT    TYP  RCUT                                                     
     0    -23.9615318     23  1.200                                                                 
     0     -9.5240782     23  1.200                                                                 
     1     -9.0304911     23  1.520                                                                 
     1      8.1634956     23  1.520                                                                 
     2     -9.5240782      7  1.500                                                                 
  local pseudopotential read in
  partial core-charges read in
  partial kinetic energy density read in
  kinetic energy density of atom read in
  atomic valenz-charges read in
  non local Contribution for L=            0  read in
    real space projection operators read in
  non local Contribution for L=            0  read in
    real space projection operators read in
  non local Contribution for L=            1  read in
    real space projection operators read in
  non local Contribution for L=            1  read in
    real space projection operators read in
    PAW grid and wavefunctions read in
 
   number of l-projection  operators is LMAX  =            4
   number of lm-projection operators is LMMAX =            8
 
 POTCAR:    PAW_PBE La 06Sep2000                  
   SHA256 =  b7aad99517e50aeb53363b20a29bb0dfa896544080812fb23322f071df953199 La/POTCAR             
   COPYR  = (c) Copyright 06Sep2000 Georg Kresse                                                    
   COPYR  = This file is part of the software VASP. Any use, copying, and all other rights are regul
   COPYR  = If you do not have a valid VASP license, you may not use, copy or distribute this file. 
   VRHFIN =La : [core=Kr4d]                                                                         
   LEXCH  = PE                                                                                      
   EATOM  =   865.9763 eV,   63.6475 Ry                                                             
                                                                                                    
   TITEL  = PAW_PBE La 06Sep2000                                                                    
   LULTRA =        F    use ultrasoft PP ?                                                          
   IUNSCR =        1    unscreen: 0-lin 1-nonlin 2-no                                               
   RPACOR =    2.300    partial core radius                                                         
   POMASS =  138.900; ZVAL   =   11.000    mass and valenz                                          
   RCORE  =    2.800    outmost cutoff radius                                                       
   RWIGS  =    2.900; RWIGS  =    1.535    wigner-seitz radius (au A)                               
   ENMAX  =  219.292; ENMIN  =  164.469 eV                                                          
   RCLOC  =    1.601    cutoff for local pot                                                        
   LCOR   =        T    correct aug charges                                                         
   LPAW   =        T    paw PP                                                                      
   EAUG   =  583.575                                                                                
   DEXC   =    0.000                                                                                
   RMAX   =    2.853    core radius for proj-oper                                                   
   RAUG   =    1.300    factor for augmentation sphere                                              
   RDEP   =    2.802    radius for radial grids                                                     
   RDEPT  =    2.156    core radius for aug-charge                                                  
                                                                                                    
   Atomic configuration                                                                             
   14 entries                                                                                       
     n  l   j            E        occ.                                                              
     1  0  0.50    -38741.0879   2.0000                                                             
     2  0  0.50     -6166.6801   2.0000                                                             
     2  1  1.50     -5526.1593   6.0000                                                             
     3  0  0.50     -1319.0200   2.0000                                                             
     3  1  1.50     -1114.5963   6.0000                                                             
     3  2  2.50      -821.1793  10.0000                                                             
     4  0  0.50      -266.3851   2.0000                                                             
     4  1  1.50      -199.9276   6.0000                                                             
     4  2  2.50      -103.8239  10.0000                                                             
     5  0  0.50       -38.9172   2.0000                                                             
     6  0  0.50        -3.6792   2.0000                                                             
     5  1  1.50       -22.3948   6.0000                                                             
     5  2  2.50        -3.0911   0.9999                                                             
     4  3  2.50        -4.3603   0.0001                                                             
   Description                                                                                      
     l       E           TYP  RCUT    TYP  RCUT                                                     
     0    -38.9171645     23  2.800                                                                 
     0     -3.6792381     23  2.800                                                                 
     1    -22.3948300     23  2.500                                                                 
     1     27.2116520     23  2.500                                                                 
     2     -3.0910934     23  2.500                                                                 
     2      1.0119135     23  2.500                                                                 
     3     -4.3602911     23  2.800                                                                 
     3     -5.7208737     23  2.800                                                                 
  local pseudopotential read in
  partial core-charges read in
  partial kinetic energy density read in
  atomic valenz-charges read in
  non local Contribution for L=            0  read in
    real space projection operators read in
  non local Contribution for L=            0  read in
    real space projection operators read in
  non local Contribution for L=            1  read in
    real space projection operators read in
  non local Contribution for L=            1  read in
    real space projection operators read in
  non local Contribution for L=            2  read in
    real space projection operators read in
  non local Contribution for L=            2  read in
    real space projection operators read in
  non local Contribution for L=            3  read in
    real space projection operators read in
  non local Contribution for L=            3  read in
    real space projection operators read in
    PAW grid and wavefunctions read in
 
   number of l-projection  operators is LMAX  =            8
   number of lm-projection operators is LMMAX =           32
 
 -----------------------------------------------------------------------------
|                                                                             |
|               ----> ADVICE to this user running VASP <----                  |
|                                                                             |
|     You have a (more or less) 'large supercell' and for larger cells it     |
|     might be more efficient to use real-space projection operators.         |
|     Therefore, try LREAL= Auto in the INCAR file.                           |
|     Mind: For very accurate calculation, you might also keep the            |
|     reciprocal projection scheme (i.e. LREAL=.FALSE.).                      |
|                                                                             |
 -----------------------------------------------------------------------------

  PAW_PBE Mn_pv 02Aug2007               :
 energy of atom  1       EATOM=-2025.2664
 kinetic energy error for atom=    0.0058 (will be added to EATOM!!)
  PAW_PBE O 08Apr2002                   :
 energy of atom  2       EATOM= -432.3788
 kinetic energy error for atom=    0.0208 (will be added to EATOM!!)
  PAW_PBE La 06Sep2000                  :
 energy of atom  3       EATOM= -865.9763
 kinetic energy error for atom=    0.0009 (will be added to EATOM!!)
 
 
 POSCAR: Converted by xsd2pos.py
  positions in direct lattice
  velocities in cartesian coordinates
 exchange correlation table for  LEXCH =        8
   RHO(1)=    0.500       N(1)  =     2000
   RHO(2)=  100.500       N(2)  =     4000
 


--------------------------------------------------------------------------------------------------------


 ion  position               nearest neighbor table
   1  0.002  0.997  0.479- 122 1.98 121 1.99  69 2.00  50 2.01  95 2.15 158 3.28 135 3.31 143 3.34
                           142 3.34
   2  0.255  0.247  0.479- 123 1.98 124 1.99  50 2.00  47 2.01  54 2.15 151 3.28 134 3.31 135 3.34
                           142 3.34
   3  0.250  0.250  0.112-  36 2.01  35 2.01  41 2.02  42 2.02  33 2.02  34 2.02 129 3.26 130 3.26
                           132 3.38 131 3.38
   4  0.000  0.000  0.112- 100 2.01  33 2.01  62 2.02  83 2.02  58 2.02  79 2.02 156 3.26 131 3.26
                           145 3.38 138 3.38
   5  0.000  0.000  0.234-  38 2.01 115 2.01  83 2.02  59 2.02  92 2.02  74 2.03 131 3.26 160 3.32
                           138 3.38
   6  0.250  0.250  0.234-  37 2.01  48 2.01  42 2.02  38 2.02  49 2.02  53 2.03 130 3.26 133 3.32
                           131 3.38
   7  0.250  0.250  0.356-  54 1.89  46 1.93  43 1.95  45 1.97  44 1.97  53 2.02 133 3.22 136 3.34
                           152 3.39
   8  0.004  0.001  0.356-  95 1.88  74 2.01  43 2.05  68 2.08  89 2.11 110 2.11 160 3.22 133 3.35
                           149 3.38
   9  0.002  0.497  0.479- 126 1.98 125 1.99  47 2.00  72 2.01 117 2.15 150 3.28 143 3.31 135 3.34
                           134 3.34
  10  0.255  0.747  0.479- 127 1.98 128 1.99  72 2.00  69 2.01  76 2.15 159 3.28 142 3.31 143 3.34
                           134 3.34
  11  0.250  0.750  0.112-  57 2.01  58 2.01  63 2.02  64 2.02  55 2.02  56 2.02 137 3.26 138 3.26
                           140 3.38 139 3.38
  12  0.000  0.500  0.112-  78 2.01  55 2.01  40 2.02 105 2.02 101 2.02  36 2.02 148 3.26 139 3.26
                           153 3.38 130 3.38
  13  0.000  0.500  0.234-  93 2.01  60 2.01 105 2.02 114 2.02  37 2.02  52 2.03 139 3.26 152 3.32
                           130 3.38
  14  0.250  0.750  0.234-  59 2.01  70 2.01  64 2.02  60 2.02  71 2.02  75 2.03 138 3.26 141 3.32
                           139 3.38
  15  0.250  0.750  0.356-  76 1.89  68 1.93  65 1.95  67 1.97  66 1.97  75 2.02 141 3.22 144 3.34
                           160 3.39
  16  0.004  0.501  0.356- 117 1.88  52 2.01  65 2.05  46 2.08 111 2.11  88 2.11 152 3.22 141 3.35
                           157 3.38
  17  0.502  0.997  0.479- 128 1.94 123 1.95 113 2.00  94 2.01  51 2.15 142 3.27 151 3.31 158 3.33
                           159 3.34
  18  0.755  0.247  0.479- 121 1.94 126 1.95  94 2.00  91 2.01  98 2.15 135 3.27 150 3.31 151 3.33
                           158 3.34
  19  0.750  0.250  0.112-  80 2.01  79 2.01  85 2.02  86 2.02  77 2.02  78 2.02 145 3.26 146 3.26
                           148 3.38 147 3.38
  20  0.500  0.000  0.112-  77 2.01  56 2.01 106 2.02  39 2.02 102 2.02  35 2.02 140 3.26 147 3.26
                           129 3.38 154 3.38
  21  0.500  0.000  0.234-  82 2.01  71 2.01  39 2.02 103 2.02  48 2.02 118 2.03 147 3.26 144 3.32
                           154 3.38
  22  0.750  0.250  0.234-  81 2.01  92 2.01  86 2.02  82 2.02  93 2.02  97 2.03 146 3.26 149 3.32
                           147 3.38
  23  0.750  0.250  0.356-  98 1.89  90 1.93  87 1.95  89 1.97  88 1.97  97 2.02 149 3.22 152 3.34
                           136 3.39
  24  0.504  0.001  0.356-  51 1.88 118 2.00  87 2.06 112 2.08  45 2.10  66 2.11 144 3.22 149 3.35
                           133 3.38
  25  0.502  0.497  0.479- 124 1.94 127 1.95  91 2.00 116 2.01  73 2.15 134 3.27 159 3.31 150 3.33
                           151 3.34
  26  0.755  0.747  0.479- 125 1.94 122 1.95 116 2.00 113 2.01 120 2.15 143 3.27 158 3.31 159 3.33
                           150 3.34
  27  0.750  0.750  0.112- 101 2.01 102 2.01 107 2.02 108 2.02  99 2.02 100 2.02 153 3.26 154 3.26
                           156 3.38 155 3.38
  28  0.500  0.500  0.112-  34 2.01  99 2.01  84 2.02  61 2.02  57 2.02  80 2.02 132 3.26 155 3.26
                           137 3.38 146 3.38
  29  0.500  0.500  0.234-  49 2.01 104 2.01  61 2.02  70 2.02  81 2.02  96 2.03 155 3.26 136 3.32
                           146 3.38
  30  0.750  0.750  0.234- 103 2.01 114 2.01 108 2.02 104 2.02 115 2.02 119 2.03 154 3.26 157 3.32
                           155 3.38
  31  0.750  0.750  0.356- 120 1.89 112 1.93 109 1.95 111 1.97 110 1.97 119 2.02 157 3.22 160 3.34
                           144 3.39
  32  0.504  0.501  0.356-  73 1.88  96 2.00 109 2.06  90 2.08  67 2.10  44 2.11 136 3.22 157 3.35
                           141 3.38
  33  0.142  0.107  0.122-   4 2.01   3 2.02 138 2.46 131 2.66 129 2.78
  34  0.358  0.393  0.102-  28 2.01   3 2.02 137 2.46 132 2.66 130 2.78
  35  0.392  0.143  0.102-   3 2.01  20 2.02 132 2.46 129 2.66 147 2.78
  36  0.108  0.357  0.122-   3 2.01  12 2.02 131 2.46 130 2.66 148 2.78
  37  0.108  0.357  0.224-   6 2.01  13 2.02 131 2.46 130 2.66
  38  0.142  0.107  0.224-   5 2.01   6 2.02 138 2.46 131 2.66
  39  0.463  0.008  0.173-  21 2.02  20 2.02 138 2.43 147 2.55
  40  0.037  0.492  0.051-  12 2.02 137 2.43 148 2.55
  41  0.213  0.242  0.051-   3 2.02 148 2.43 129 2.55
  42  0.287  0.258  0.173-   6 2.02   3 2.02 147 2.43 130 2.55
  43  0.155  0.105  0.363-   7 1.95   8 2.05 142 2.57 133 2.58
  44  0.353  0.390  0.345-   7 1.97  32 2.11 141 2.40 136 2.61
  45  0.390  0.148  0.345-   7 1.97  24 2.10 136 2.37 133 2.61
  46  0.107  0.346  0.363-   7 1.93  16 2.08 135 2.55 152 2.61
  47  0.130  0.373  0.470-   9 2.00   2 2.01 134 2.48 135 2.52
  48  0.392  0.143  0.243-   6 2.01  21 2.02 136 2.53 133 2.73 147 2.78
  49  0.358  0.393  0.243-  29 2.01   6 2.02 141 2.53 136 2.73 130 2.78
  50  0.128  0.123  0.470-   2 2.00   1 2.01 135 2.48 142 2.53
  51  0.478  0.005  0.413-  24 1.88  17 2.15 142 2.49 151 2.73
  52  0.035  0.493  0.295-  16 2.01  13 2.03 141 2.44 152 2.55
  53  0.215  0.243  0.295-   7 2.02   6 2.03 152 2.44 133 2.55
  54  0.280  0.255  0.413-   7 1.89   2 2.15 151 2.48 134 2.73
  55  0.142  0.607  0.122-  12 2.01  11 2.02 130 2.46 139 2.66 137 2.78
  56  0.358  0.893  0.102-  20 2.01  11 2.02 129 2.46 140 2.66 138 2.78
  57  0.392  0.643  0.102-  11 2.01  28 2.02 140 2.46 137 2.66 155 2.78
  58  0.108  0.857  0.122-  11 2.01   4 2.02 139 2.46 138 2.66 156 2.78
  59  0.108  0.857  0.224-  14 2.01   5 2.02 139 2.46 138 2.66
  60  0.142  0.607  0.224-  13 2.01  14 2.02 130 2.46 139 2.66
  61  0.463  0.508  0.173-  29 2.02  28 2.02 130 2.43 155 2.55
  62  0.037  0.992  0.051-   4 2.02 129 2.43 156 2.55
  63  0.213  0.742  0.051-  11 2.02 156 2.43 137 2.55
  64  0.287  0.758  0.173-  14 2.02  11 2.02 155 2.43 138 2.55
  65  0.155  0.605  0.363-  15 1.95  16 2.05 134 2.57 141 2.58
  66  0.353  0.890  0.345-  15 1.97  24 2.11 133 2.40 144 2.61
  67  0.390  0.648  0.345-  15 1.97  32 2.10 144 2.37 141 2.61
  68  0.107  0.846  0.363-  15 1.93   8 2.08 143 2.55 160 2.61
  69  0.130  0.873  0.470-   1 2.00  10 2.01 142 2.48 143 2.52
  70  0.392  0.643  0.243-  14 2.01  29 2.02 144 2.53 141 2.72 155 2.78
  71  0.358  0.893  0.243-  21 2.01  14 2.02 133 2.53 144 2.72 138 2.78
  72  0.128  0.623  0.470-  10 2.00   9 2.01 143 2.48 134 2.53
  73  0.478  0.505  0.413-  32 1.88  25 2.15 134 2.49 159 2.73
  74  0.035  0.993  0.295-   8 2.01   5 2.03 133 2.44 160 2.55
  75  0.215  0.743  0.295-  15 2.02  14 2.03 160 2.44 141 2.55
  76  0.280  0.755  0.413-  15 1.89  10 2.15 159 2.48 142 2.73
  77  0.642  0.107  0.122-  20 2.01  19 2.02 154 2.46 147 2.66 145 2.78
  78  0.858  0.393  0.102-  12 2.01  19 2.02 153 2.46 148 2.66 146 2.78
  79  0.892  0.143  0.102-  19 2.01   4 2.02 148 2.46 145 2.66 131 2.78
  80  0.608  0.357  0.122-  19 2.01  28 2.02 147 2.46 146 2.66 132 2.78
  81  0.608  0.357  0.224-  22 2.01  29 2.02 147 2.46 146 2.66
  82  0.642  0.107  0.224-  21 2.01  22 2.02 154 2.46 147 2.66
  83  0.963  0.008  0.173-   5 2.02   4 2.02 154 2.43 131 2.55
  84  0.537  0.492  0.051-  28 2.02 153 2.43 132 2.55
  85  0.713  0.242  0.051-  19 2.02 132 2.43 145 2.55
  86  0.787  0.258  0.173-  22 2.02  19 2.02 131 2.43 146 2.55
  87  0.655  0.105  0.363-  23 1.95  24 2.06 158 2.57 149 2.58
  88  0.854  0.390  0.345-  23 1.97  16 2.11 157 2.39 152 2.61
  89  0.890  0.148  0.345-  23 1.97   8 2.11 152 2.37 149 2.61
  90  0.607  0.347  0.363-  23 1.93  32 2.08 151 2.55 136 2.60
  91  0.630  0.373  0.470-  25 2.00  18 2.01 150 2.47 151 2.52
  92  0.892  0.143  0.243-  22 2.01   5 2.02 152 2.53 149 2.72 131 2.78
  93  0.858  0.393  0.243-  13 2.01  22 2.02 157 2.53 152 2.72 146 2.78
  94  0.628  0.123  0.470-  18 2.00  17 2.01 151 2.47 158 2.52
  95  0.977  0.004  0.413-   8 1.88   1 2.15 158 2.49 135 2.73
  96  0.535  0.493  0.295-  32 2.00  29 2.03 157 2.44 136 2.55
  97  0.715  0.243  0.295-  23 2.02  22 2.03 136 2.44 149 2.55
  98  0.780  0.255  0.413-  23 1.89  18 2.15 135 2.48 150 2.72
  99  0.642  0.607  0.122-  28 2.01  27 2.02 146 2.46 155 2.66 153 2.78
 100  0.858  0.893  0.102-   4 2.01  27 2.02 145 2.46 156 2.66 154 2.78
 101  0.892  0.643  0.102-  27 2.01  12 2.02 156 2.46 153 2.66 139 2.78
 102  0.608  0.857  0.122-  27 2.01  20 2.02 155 2.46 154 2.66 140 2.78
 103  0.608  0.857  0.224-  30 2.01  21 2.02 155 2.46 154 2.66
 104  0.642  0.607  0.224-  29 2.01  30 2.02 146 2.46 155 2.66
 105  0.963  0.508  0.173-  13 2.02  12 2.02 146 2.43 139 2.55
 106  0.537  0.992  0.051-  20 2.02 145 2.43 140 2.55
 107  0.713  0.742  0.051-  27 2.02 140 2.43 153 2.55
 108  0.787  0.758  0.173-  30 2.02  27 2.02 139 2.43 154 2.55
 109  0.655  0.605  0.363-  31 1.95  32 2.06 150 2.57 157 2.58
 110  0.854  0.890  0.345-  31 1.97   8 2.11 149 2.39 160 2.61
 111  0.890  0.648  0.345-  31 1.97  16 2.11 160 2.37 157 2.61
 112  0.607  0.847  0.363-  31 1.93  24 2.08 159 2.55 144 2.60
 113  0.630  0.873  0.470-  17 2.00  26 2.01 158 2.47 159 2.52
 114  0.892  0.643  0.243-  30 2.01  13 2.02 160 2.53 157 2.72 139 2.78
 115  0.858  0.893  0.243-   5 2.01  30 2.02 149 2.53 160 2.72 154 2.78
 116  0.628  0.623  0.470-  26 2.00  25 2.01 159 2.47 150 2.52
 117  0.977  0.504  0.413-  16 1.88   9 2.15 150 2.49 143 2.73
 118  0.535  0.993  0.295-  24 2.00  21 2.03 149 2.44 144 2.55
 119  0.715  0.743  0.295-  31 2.02  30 2.03 144 2.44 157 2.55
 120  0.780  0.755  0.413-  31 1.89  26 2.15 143 2.48 158 2.72
 121  0.873  0.120  0.477-  18 1.94   1 1.99 158 2.58 135 2.64
 122  0.880  0.868  0.477-  26 1.95   1 1.98 143 2.59 158 2.63
 123  0.377  0.118  0.477-  17 1.95   2 1.98 142 2.59 151 2.63
 124  0.383  0.370  0.477-  25 1.94   2 1.99 151 2.58 134 2.63
 125  0.873  0.620  0.477-  26 1.94   9 1.99 150 2.58 143 2.64
 126  0.880  0.368  0.477-  18 1.95   9 1.98 135 2.59 150 2.63
 127  0.377  0.618  0.477-  25 1.95  10 1.98 134 2.59 159 2.63
 128  0.383  0.870  0.477-  17 1.94  10 1.99 159 2.58 142 2.63
 129  0.254  0.018  0.051-  62 2.43  56 2.46  41 2.55  35 2.66  33 2.78   3 3.26  20 3.38
 130  0.246  0.482  0.173-  61 2.43  60 2.46  55 2.46  42 2.55  36 2.66  37 2.66  49 2.78  34 2.78
                             6 3.26   3 3.26  13 3.38  12 3.38
 131  0.004  0.232  0.173-  86 2.43  37 2.46  36 2.46  83 2.55  33 2.66  38 2.66  92 2.78  79 2.78
                             5 3.26   4 3.26   6 3.38   3 3.38
 132  0.496  0.268  0.051-  85 2.43  35 2.46  84 2.55  34 2.66  80 2.78  28 3.26   3 3.38
 133  0.253  0.018  0.297-  66 2.40  74 2.44  71 2.53  53 2.55  43 2.58  45 2.61  48 2.73   7 3.22
                             6 3.32   8 3.35  24 3.38
 134  0.256  0.495  0.424-  47 2.48  73 2.49  72 2.53  65 2.57 127 2.59 124 2.63  54 2.73  25 3.27
                             2 3.31  10 3.34   9 3.34
 135  0.001  0.245  0.424-  50 2.48  98 2.48  47 2.52  46 2.55 126 2.59 121 2.64  95 2.73  18 3.27
                             1 3.31   2 3.34   9 3.34
 136  0.497  0.268  0.297-  45 2.37  97 2.44  48 2.53  96 2.55  90 2.60  44 2.61  49 2.73  32 3.22
                            29 3.32   7 3.34  23 3.39
 137  0.254  0.518  0.051-  40 2.43  34 2.46  63 2.55  57 2.66  55 2.78  11 3.26  28 3.38
 138  0.246  0.982  0.173-  39 2.43  38 2.46  33 2.46  64 2.55  59 2.66  58 2.66  71 2.78  56 2.78
                            14 3.26  11 3.26   5 3.38   4 3.38
 139  0.004  0.732  0.173- 108 2.43  59 2.46  58 2.46 105 2.55  55 2.66  60 2.66 114 2.78 101 2.78
                            13 3.26  12 3.26  14 3.38  11 3.38
 140  0.496  0.768  0.051- 107 2.43  57 2.46 106 2.55  56 2.66 102 2.78  20 3.26  11 3.38
 141  0.253  0.518  0.297-  44 2.40  52 2.44  49 2.53  75 2.55  65 2.58  67 2.61  70 2.72  15 3.22
                            14 3.32  16 3.35  32 3.38
 142  0.256  0.995  0.424-  69 2.48  51 2.49  50 2.53  43 2.57 123 2.59 128 2.63  76 2.73  17 3.27
                            10 3.31   2 3.34   1 3.34
 143  0.001  0.745  0.424-  72 2.48 120 2.48  69 2.52  68 2.55 122 2.59 125 2.64 117 2.73  26 3.27
                             9 3.31  10 3.34   1 3.34
 144  0.497  0.768  0.297-  67 2.37 119 2.44  70 2.53 118 2.55 112 2.60  66 2.61  71 2.72  24 3.22
                            21 3.32  15 3.34  31 3.39
 145  0.754  0.018  0.051- 106 2.43 100 2.46  85 2.55  79 2.66  77 2.78  19 3.26   4 3.38
 146  0.746  0.482  0.173- 105 2.43 104 2.46  99 2.46  86 2.55  80 2.66  81 2.66  93 2.78  78 2.78
                            22 3.26  19 3.26  29 3.38  28 3.38
 147  0.504  0.232  0.173-  42 2.43  80 2.46  81 2.46  39 2.55  77 2.66  82 2.66  48 2.78  35 2.78
                            21 3.26  20 3.26  22 3.38  19 3.38
 148  0.996  0.268  0.051-  41 2.43  79 2.46  40 2.55  78 2.66  36 2.78  12 3.26  19 3.38
 149  0.753  0.018  0.297- 110 2.39 118 2.44 115 2.53  97 2.55  87 2.58  89 2.61  92 2.72  23 3.22
                            22 3.32  24 3.35   8 3.38
 150  0.756  0.495  0.423-  91 2.47 117 2.49 116 2.52 109 2.57 125 2.58 126 2.63  98 2.72   9 3.28
                            18 3.31  25 3.33  26 3.34
 151  0.502  0.245  0.424-  94 2.47  54 2.48  91 2.52  90 2.55 124 2.58 123 2.63  51 2.73   2 3.28
                            17 3.31  18 3.33  25 3.34
 152  0.997  0.268  0.297-  89 2.37  53 2.44  92 2.53  52 2.55  46 2.61  88 2.61  93 2.72  16 3.22
                            13 3.32  23 3.34   7 3.39
 153  0.754  0.518  0.051-  84 2.43  78 2.46 107 2.55 101 2.66  99 2.78  27 3.26  12 3.38
 154  0.746  0.982  0.173-  83 2.43  82 2.46  77 2.46 108 2.55 103 2.66 102 2.66 115 2.78 100 2.78
                            30 3.26  27 3.26  21 3.38  20 3.38
 155  0.504  0.732  0.173-  64 2.43 102 2.46 103 2.46  61 2.55  99 2.66 104 2.66  70 2.78  57 2.78
                            29 3.26  28 3.26  30 3.38  27 3.38
 156  0.996  0.768  0.051-  63 2.43 101 2.46  62 2.55 100 2.66  58 2.78   4 3.26  27 3.38
 157  0.753  0.518  0.297-  88 2.39  96 2.44  93 2.53 119 2.55 109 2.58 111 2.61 114 2.72  31 3.22
                            30 3.32  32 3.35  16 3.38
 158  0.756  0.995  0.423- 113 2.47  95 2.49  94 2.52  87 2.57 121 2.58 122 2.63 120 2.72   1 3.28
                            26 3.31  17 3.33  18 3.34
 159  0.502  0.745  0.424- 116 2.47  76 2.48 113 2.52 112 2.55 128 2.58 127 2.63  73 2.73  10 3.28
                            25 3.31  26 3.33  17 3.34
 160  0.997  0.768  0.297- 111 2.37  75 2.44 114 2.53  74 2.55  68 2.61 110 2.61 115 2.72   8 3.22
                             5 3.32  31 3.34  15 3.39
 
  LATTYP: Found a simple orthorhombic cell.
 ALAT       =    11.1038400000
 B/A-ratio  =     1.0086815012
 C/A-ratio  =     2.9210293916
  
  Lattice vectors:
  
 A1 = (  11.1038400000,   0.0000000000,   0.0000000000)
 A2 = (   0.0000000000,  11.2002380000,   0.0000000000)
 A3 = (   0.0000000000,   0.0000000000,  32.4346430000)


Analysis of symmetry for initial positions (statically):
=====================================================================
 Subroutine PRICEL returns:
 Original cell was already a primitive cell.
 

 Routine SETGRP: Setting up the symmetry group for a 
 simple orthorhombic supercell.


 Subroutine GETGRP returns: Found  1 space group operations
 (whereof  1 operations were pure point group operations)
 out of a pool of  8 trial point group operations.


The static configuration has the point symmetry C_1 .


Analysis of symmetry for dynamics (positions and initial velocities):
=====================================================================
 Subroutine PRICEL returns:
 Original cell was already a primitive cell.
 

 Routine SETGRP: Setting up the symmetry group for a 
 simple orthorhombic supercell.


 Subroutine GETGRP returns: Found  1 space group operations
 (whereof  1 operations were pure point group operations)
 out of a pool of  8 trial point group operations.


The dynamic configuration has the point symmetry C_1 .


Analysis of constrained symmetry for selective dynamics:
=====================================================================
 Subroutine PRICEL returns:
 Original cell was already a primitive cell.
 

 Routine SETGRP: Setting up the symmetry group for a 
 simple orthorhombic supercell.


 Subroutine GETGRP returns: Found  1 space group operations
 (whereof  1 operations were pure point group operations)
 out of a pool of  8 trial point group operations.


The constrained configuration has the point symmetry C_1 .


Analysis of structural, dynamic, and magnetic symmetry:
=====================================================================
 Subroutine PRICEL returns:
 Original cell was already a primitive cell.
 

 Routine SETGRP: Setting up the symmetry group for a 
 simple orthorhombic supercell.


 Subroutine GETGRP returns: Found  1 space group operations
 (whereof  1 operations were pure point group operations)
 out of a pool of  8 trial point group operations.


The overall configuration has the point symmetry C_1 .


 Subroutine INISYM returns: Found  1 space group operations
 (whereof  1 operations are pure point group operations),
 and found     1 'primitive' translations


----------------------------------------------------------------------------------------

                                     Primitive cell                                     

  volume of cell :    4033.7555

  direct lattice vectors                    reciprocal lattice vectors
    11.103840000  0.000000000  0.000000000     0.090058935  0.000000000  0.000000000
     0.000000000 11.200238000  0.000000000     0.000000000  0.089283817  0.000000000
     0.000000000  0.000000000 32.434643000     0.000000000  0.000000000  0.030831232

  length of vectors
    11.103840000 11.200238000 32.434643000     0.090058935  0.089283817  0.030831232

  position of ions in fractional coordinates (direct lattice)
     0.002093583  0.996846182  0.478948573
     0.255051906  0.246812505  0.478941536
     0.250000000  0.250000000  0.111913000
     0.000000000  0.000000000  0.111913000
     0.000000000  0.000000000  0.233518000
     0.250000000  0.250000000  0.233518000
     0.249764568  0.250091728  0.355900459
     0.004499225  0.000958911  0.355811206
     0.002093922  0.496845783  0.478948364
     0.255050259  0.746811573  0.478941340
     0.250000000  0.750000000  0.111913000
     0.000000000  0.500000000  0.111913000
     0.000000000  0.500000000  0.233518000
     0.250000000  0.750000000  0.233518000
     0.249763231  0.750090133  0.355901613
     0.004495673  0.500958126  0.355808964
     0.502280127  0.996829332  0.478646203
     0.754854603  0.246815003  0.478655976
     0.750000000  0.250000000  0.111913000
     0.500000000  0.000000000  0.111913000
     0.500000000  0.000000000  0.233518000
     0.750000000  0.250000000  0.233518000
     0.749880582  0.250305504  0.355786520
     0.504411947  0.001078813  0.355681661
     0.502278451  0.496826271  0.478644446
     0.754854300  0.746817312  0.478656533
     0.750000000  0.750000000  0.111913000
     0.500000000  0.500000000  0.111913000
     0.500000000  0.500000000  0.233518000
     0.750000000  0.750000000  0.233518000
     0.749880769  0.750302083  0.355786386
     0.504413911  0.501080359  0.355679272
     0.142234000  0.107080000  0.121605000
     0.357767000  0.392920000  0.102221000
     0.392233000  0.142919000  0.102221000
     0.107767000  0.357080000  0.121605000
     0.107767000  0.357080000  0.223827000
     0.142234000  0.107080000  0.223827000
     0.463096000  0.007781000  0.172716000
     0.036904000  0.492219000  0.051111000
     0.213096000  0.242219000  0.051111000
     0.286904000  0.257781000  0.172716000
     0.155438064  0.104767280  0.363165170
     0.353357618  0.389963238  0.345463544
     0.390262763  0.147744681  0.345156119
     0.106901378  0.346409877  0.363076299
     0.129523537  0.373122605  0.470384465
     0.392233000  0.142919000  0.243210000
     0.357767000  0.392920000  0.243210000
     0.127688644  0.123121589  0.470423138
     0.477597366  0.004593958  0.412849828
     0.035304000  0.492789000  0.294860000
     0.214679000  0.242785000  0.294861000
     0.280342397  0.254988609  0.413274813
     0.142234000  0.607081000  0.121605000
     0.357767000  0.892919000  0.102221000
     0.392233000  0.642919000  0.102221000
     0.107767000  0.857081000  0.121605000
     0.107767000  0.857081000  0.223827000
     0.142234000  0.607081000  0.223827000
     0.463096000  0.507781000  0.172716000
     0.036904000  0.992219000  0.051111000
     0.213096000  0.742219000  0.051111000
     0.286904000  0.757781000  0.172716000
     0.155440565  0.604765164  0.363163704
     0.353355289  0.889971437  0.345468497
     0.390262602  0.647745884  0.345154695
     0.106902201  0.846405180  0.363078818
     0.129520230  0.873124520  0.470385158
     0.392233000  0.642919000  0.243210000
     0.357767000  0.892919000  0.243210000
     0.127689484  0.623120889  0.470421726
     0.477589407  0.504591695  0.412846806
     0.035304000  0.992790000  0.294864000
     0.214678000  0.742794000  0.294863000
     0.280342349  0.754974564  0.413276290
     0.642233000  0.107080000  0.121605000
     0.857767000  0.392920000  0.102221000
     0.892233000  0.142919000  0.102221000
     0.607767000  0.357080000  0.121605000
     0.607767000  0.357080000  0.223827000
     0.642233000  0.107080000  0.223827000
     0.963096000  0.007781000  0.172716000
     0.536904000  0.492219000  0.051111000
     0.713096000  0.242219000  0.051111000
     0.786904000  0.257781000  0.172716000
     0.655227304  0.105412980  0.363052479
     0.853709791  0.390214650  0.345400859
     0.890199089  0.147826377  0.345157791
     0.607076416  0.346967490  0.362898558
     0.629548434  0.373377426  0.470023216
     0.892233000  0.142919000  0.243210000
     0.857767000  0.392920000  0.243210000
     0.627638605  0.123353587  0.470009105
     0.977361529  0.004381686  0.413137188
     0.535322000  0.492787000  0.294862000
     0.714697000  0.242785000  0.294862000
     0.780148099  0.255427873  0.412987725
     0.642233000  0.607081000  0.121605000
     0.857767000  0.892919000  0.102221000
     0.892233000  0.642919000  0.102221000
     0.607767000  0.857081000  0.121605000
     0.607767000  0.857081000  0.223827000
     0.642233000  0.607081000  0.223827000
     0.963096000  0.507781000  0.172716000
     0.536904000  0.992219000  0.051111000
     0.713096000  0.742219000  0.051111000
     0.786904000  0.757781000  0.172716000
     0.655227997  0.605411269  0.363050107
     0.853714503  0.890218020  0.345403201
     0.890197135  0.647818830  0.345154758
     0.607078480  0.846964407  0.362899730
     0.629549257  0.873381264  0.470027172
     0.892233000  0.642919000  0.243210000
     0.857767000  0.892919000  0.243210000
     0.627637517  0.623354242  0.470007228
     0.977354746  0.504380515  0.413135552
     0.535320000  0.992787000  0.294865000
     0.714696000  0.742792000  0.294864000
     0.780148218  0.755421999  0.412987870
     0.873485788  0.120030422  0.476727497
     0.880164153  0.868390878  0.476897389
     0.376938334  0.118371587  0.476832195
     0.383490778  0.370095329  0.476788901
     0.873484819  0.620035820  0.476728261
     0.880164343  0.368384110  0.476897668
     0.376942370  0.618368675  0.476831515
     0.383483616  0.870108109  0.476785801
     0.253773000  0.018327000  0.051111000
     0.246227000  0.481673000  0.172716000
     0.003773000  0.231673000  0.172716000
     0.496227000  0.268327000  0.051111000
     0.253056000  0.018298000  0.297399000
     0.256027371  0.495244312  0.423620404
     0.001478520  0.245384342  0.423743956
     0.496941000  0.268294000  0.297400000
     0.253773000  0.518327000  0.051111000
     0.246227000  0.981673000  0.172716000
     0.003773000  0.731673000  0.172716000
     0.496227000  0.768327000  0.051111000
     0.253057000  0.518301000  0.297396000
     0.256029233  0.995241731  0.423622237
     0.001477932  0.745387278  0.423744440
     0.496941000  0.768302000  0.297400000
     0.753773000  0.018327000  0.051111000
     0.746227000  0.481673000  0.172716000
     0.503773000  0.231673000  0.172716000
     0.996227000  0.268327000  0.051111000
     0.753072000  0.018302000  0.297403000
     0.755627692  0.495272527  0.423423735
     0.501855061  0.245361568  0.423507848
     0.996931000  0.268297000  0.297398000
     0.753773000  0.518327000  0.051111000
     0.746227000  0.981673000  0.172716000
     0.503773000  0.731673000  0.172716000
     0.996227000  0.768327000  0.051111000
     0.753074000  0.518304000  0.297399000
     0.755628941  0.995272466  0.423424510
     0.501852867  0.745365867  0.423508248
     0.996931000  0.768305000  0.297399000

  ion indices of the primitive-cell ions
   primitive index   ion index
                 1           1
                 2           2
                 3           3
                 4           4
                 5           5
                 6           6
                 7           7
                 8           8
                 9           9
                10          10
                11          11
                12          12
                13          13
                14          14
                15          15
                16          16
                17          17
                18          18
                19          19
                20          20
                21          21
                22          22
                23          23
                24          24
                25          25
                26          26
                27          27
                28          28
                29          29
                30          30
                31          31
                32          32
                33          33
                34          34
                35          35
                36          36
                37          37
                38          38
                39          39
                40          40
                41          41
                42          42
                43          43
                44          44
                45          45
                46          46
                47          47
                48          48
                49          49
                50          50
                51          51
                52          52
                53          53
                54          54
                55          55
                56          56
                57          57
                58          58
                59          59
                60          60
                61          61
                62          62
                63          63
                64          64
                65          65
                66          66
                67          67
                68          68
                69          69
                70          70
                71          71
                72          72
                73          73
                74          74
                75          75
                76          76
                77          77
                78          78
                79          79
                80          80
                81          81
                82          82
                83          83
                84          84
                85          85
                86          86
                87          87
                88          88
                89          89
                90          90
                91          91
                92          92
                93          93
                94          94
                95          95
                96          96
                97          97
                98          98
                99          99
               100         100
               101         101
               102         102
               103         103
               104         104
               105         105
               106         106
               107         107
               108         108
               109         109
               110         110
               111         111
               112         112
               113         113
               114         114
               115         115
               116         116
               117         117
               118         118
               119         119
               120         120
               121         121
               122         122
               123         123
               124         124
               125         125
               126         126
               127         127
               128         128
               129         129
               130         130
               131         131
               132         132
               133         133
               134         134
               135         135
               136         136
               137         137
               138         138
               139         139
               140         140
               141         141
               142         142
               143         143
               144         144
               145         145
               146         146
               147         147
               148         148
               149         149
               150         150
               151         151
               152         152
               153         153
               154         154
               155         155
               156         156
               157         157
               158         158
               159         159
               160         160

----------------------------------------------------------------------------------------

 
 
 KPOINTS: K-Spacing Value to Generate K-Mesh: 0.03

Automatic generation of k-mesh.
 Grid dimensions read from file:
 generate k-points for:    3    3    1

 Generating k-lattice:

  Cartesian coordinates                     Fractional coordinates (reciprocal lattice)
     0.030019645  0.000000000  0.000000000     0.333333333  0.000000000  0.000000000
     0.000000000  0.029761272  0.000000000     0.000000000  0.333333333  0.000000000
     0.000000000  0.000000000  0.030831232     0.000000000  0.000000000  1.000000000

  Length of vectors
     0.030019645  0.029761272  0.030831232

  Shift w.r.t. Gamma in fractional coordinates (k-lattice)
     0.000000000  0.000000000  0.000000000

 
 Subroutine IBZKPT returns following result:
 ===========================================
 
 Found      5 irreducible k-points:
 
 Following reciprocal coordinates:
            Coordinates               Weight
  0.000000  0.000000  0.000000      1.000000
  0.333333  0.000000  0.000000      2.000000
  0.000000  0.333333  0.000000      2.000000
  0.333333  0.333333  0.000000      2.000000
  0.333333 -0.333333  0.000000      2.000000
 
 Following cartesian coordinates:
            Coordinates               Weight
  0.000000  0.000000  0.000000      1.000000
  0.030020  0.000000  0.000000      2.000000
  0.000000  0.029761  0.000000      2.000000
  0.030020  0.029761  0.000000      2.000000
  0.030020 -0.029761  0.000000      2.000000
 


--------------------------------------------------------------------------------------------------------




 Dimension of arrays:
   k-points           NKPTS =      5   k-points in BZ     NKDIM =      5   number of bands    NBANDS=    808
   number of dos      NEDOS =    301   number of ions     NIONS =    160
   non local maximal  LDIM  =      8   non local SUM 2l+1 LMDIM =     32
   total plane-waves  NPLWV = ******
   max r-space proj   IRMAX =      1   max aug-charges    IRDMAX= 182985
   dimension x,y,z NGX =    84 NGY =   84 NGZ =  250
   dimension x,y,z NGXF=   168 NGYF=  168 NGZF=  500
   support grid    NGXF=   336 NGYF=  336 NGZF= 1000
   ions per type =              32  96  32
   NGX,Y,Z   is equivalent  to a cutoff of  12.58, 12.47, 12.81 a.u.
   NGXF,Y,Z  is equivalent  to a cutoff of  25.15, 24.94, 25.63 a.u.

 SYSTEM =  unknown system                          
 POSCAR =  Converted by xsd2pos.py                 

 Startparameter for this run:
   NWRITE =      2    write-flag & timer
   PREC   = accura    normal or accurate (medium, high low for compatibility)
   ISTART =      0    job   : 0-new  1-cont  2-samecut
   ICHARG =      2    charge: 1-file 2-atom 10-const
   ISPIN  =      2    spin polarized calculation?
   LNONCOLLINEAR =      F non collinear calculations
   LSORBIT =      F    spin-orbit coupling
   INIWAV =      1    electr: 0-lowe 1-rand  2-diag
   LASPH  =      T    aspherical Exc in radial PAW
 Electronic Relaxation 1
   ENCUT  =  520.0 eV  38.22 Ry    6.18 a.u.  20.65 20.83 60.31*2*pi/ulx,y,z
   ENINI  =  520.0     initial cutoff
   ENAUG  =  605.4 eV  augmentation charge cutoff
   NELM   =    150;   NELMIN=  6; NELMDL= -5     # of ELM steps 
   EDIFF  = 0.1E-03   stopping-criterion for ELM
   LREAL  =      F    real-space projection
   NLSPLINE    = F    spline interpolate recip. space projectors
   LCOMPAT=      F    compatible to vasp.4.4
   GGA_COMPAT  = F    GGA compatible to vasp.4.4-vasp.4.6
   LMAXPAW     = -100 max onsite density
   LMAXMIX     =    6 max onsite mixed and CHGCAR
   VOSKOWN=      1    Vosko Wilk Nusair interpolation
   ROPT   =    0.00000   0.00000   0.00000
 Ionic relaxation
   EDIFFG = -.1E-01   stopping-criterion for IOM
   NSW    =      0    number of steps for IOM
   NBLOCK =      1;   KBLOCK =      1    inner block; outer block 
   IBRION =     -1    ionic relax: 0-MD 1-quasi-New 2-CG
   NFREE  =      1    steps in history (QN), initial steepest desc. (CG)
   ISIF   =      2    stress and relaxation
   IWAVPR =     10    prediction:  0-non 1-charg 2-wave 3-comb
   ISYM   =      2    0-nonsym 1-usesym 2-fastsym
   LCORR  =      T    Harris-Foulkes like correction to forces

   POTIM  = 0.5000    time-step for ionic-motion
   TEIN   =    0.0    initial temperature
   TEBEG  =    0.0;   TEEND  =   0.0 temperature during run
   SMASS  =  -3.00    Nose mass-parameter (am)
   estimated Nose-frequenzy (Omega)   =  0.10E-29 period in steps = 0.13E+47 mass=  -0.282E-26a.u.
   SCALEE = 1.0000    scale energy and forces
   NPACO  =    256;   APACO  = 10.0  distance and # of slots for P.C.
   PSTRESS=    0.0 pullay stress

  Mass of Ions in am
   POMASS =  54.94 16.00138.90
  Ionic Valenz
   ZVAL   =  13.00  6.00 11.00
  Atomic Wigner-Seitz radii
   RWIGS  =  -1.00 -1.00 -1.00
  virtual crystal weights 
   VCA    =   1.00  1.00  1.00
   NELECT =    1344.0000    total number of electrons
   NUPDOWN=      -1.0000    fix difference up-down

 DOS related values:
   EMIN   =  10.00;   EMAX   =-10.00  energy-range for DOS
   EFERMI =   0.00
   ISMEAR =    -1;   SIGMA  =   0.05  broadening in eV -4-tet -1-fermi 0-gaus

 Electronic relaxation 2 (details)
   IALGO  =     68    algorithm
   LDIAG  =      T    sub-space diagonalisation (order eigenvalues)
   LSUBROT=      F    optimize rotation matrix (better conditioning)
   TURBO    =      0    0=normal 1=particle mesh
   IRESTART =      0    0=no restart 2=restart with 2 vectors
   NREBOOT  =      0    no. of reboots
   NMIN     =      0    reboot dimension
   EREF     =   0.00    reference energy to select bands
   IMIX   =      4    mixing-type and parameters
     AMIX     =   0.40;   BMIX     =  1.00
     AMIX_MAG =   1.60;   BMIX_MAG =  1.00
     AMIN     =   0.10
     WC   =   100.;   INIMIX=   1;  MIXPRE=   1;  MAXMIX= -45

 Intra band minimization:
   WEIMIN = 0.0000     energy-eigenvalue tresh-hold
   EBREAK =  0.31E-07  absolut break condition
   DEPER  =   0.30     relativ break condition  

   TIME   =   0.40     timestep for ELM

  volume/ion in A,a.u.               =      25.21       170.13
  Fermi-wavevector in a.u.,A,eV,Ry     =   1.134936  2.144718 17.525391  1.288080
  Thomas-Fermi vector in A             =   2.271640
 
 Write flags
   LWAVE        =      T    write WAVECAR
   LDOWNSAMPLE  =      F    k-point downsampling of WAVECAR
   LCHARG       =      T    write CHGCAR
   LVTOT        =      F    write LOCPOT, total local potential
   LVHAR        =      F    write LOCPOT, Hartree potential only
   LELF         =      F    write electronic localiz. function (ELF)
   LORBIT       =     11    0 simple, 1 ext, 2 COOP (PROOUT), +10 PAW based schemes


 Dipole corrections
   LMONO  =      F    monopole corrections only (constant potential shift)
   LDIPOL =      T    correct potential (dipole corrections)
   IDIPOL =      3    1-x, 2-y, 3-z, 4-all directions 
   EPSILON=  1.0000000 bulk dielectric constant

 LDA+U is selected, type is set to LDAUTYPE =  2
   angular momentum for each species LDAUL =     2   -1   -1
   U (eV)           for each species LDAUU =   4.5  0.0  0.0
   J (eV)           for each species LDAUJ =   0.0  0.0  0.0
 Exchange correlation treatment:
   GGA     =    --    GGA type
   LEXCH   =     8    internal setting for exchange type
   LIBXC   =     F    Libxc                    
   VOSKOWN =     1    Vosko Wilk Nusair interpolation
   LHFCALC =     F    Hartree Fock is set to
   LHFONE  =     F    Hartree Fock one center treatment
   AEXX    =    0.0000 exact exchange contribution

 Linear response parameters
   LEPSILON=     F    determine dielectric tensor
   LRPA    =     F    only Hartree local field effects (RPA)
   LNABLA  =     F    use nabla operator in PAW spheres
   LVEL    =     F    velocity operator in full k-point grid
   CSHIFT  =0.1000    complex shift for real part using Kramers Kronig
   OMEGAMAX=  -1.0    maximum frequency
   DEG_THRESHOLD= 0.2000000E-02 threshold for treating states as degnerate
   RTIME   =   -0.100 relaxation time in fs
  (WPLASMAI=    0.000 imaginary part of plasma frequency in eV, 0.658/RTIME)
   DFIELD  = 0.0000000 0.0000000 0.0000000 field for delta impulse in time
 
  Optional k-point grid parameters
   LKPOINTS_OPT  =     F    use optional k-point grid
   KPOINTS_OPT_MODE=     1    mode for optional k-point grid
 
 Orbital magnetization related:
   ORBITALMAG=     F  switch on orbital magnetization
   LCHIMAG   =     F  perturbation theory with respect to B field
   DQ        =  0.001000  dq finite difference perturbation B field
   LLRAUG    =     F  two centre corrections for induced B field



--------------------------------------------------------------------------------------------------------


 Static calculation
 charge density and potential will be updated during run
 spin polarized calculation
 RMM-DIIS sequential band-by-band and
  variant of blocked Davidson during initial phase
 perform sub-space diagonalisation
    before iterative eigenvector-optimisation
 modified Broyden-mixing scheme, WC =      100.0
 initial mixing is a Kerker type mixing with AMIX =  0.4000 and BMIX =      1.0000
 Hartree-type preconditioning will be used
 using additional bands           136
 reciprocal scheme for non local part
 use partial core corrections
 calculate Harris-corrections to forces 
   (improved forces if not selfconsistent)
 use gradient corrections 
 use of overlap-Matrix (Vanderbilt PP)
 Fermi-smearing in eV        SIGMA  =   0.05


--------------------------------------------------------------------------------------------------------


  energy-cutoff  :      520.00
  volume of cell :     4033.76
      direct lattice vectors                 reciprocal lattice vectors
    11.103840000  0.000000000  0.000000000     0.090058935  0.000000000  0.000000000
     0.000000000 11.200238000  0.000000000     0.000000000  0.089283817  0.000000000
     0.000000000  0.000000000 32.434643000     0.000000000  0.000000000  0.030831232

  length of vectors
    11.103840000 11.200238000 32.434643000     0.090058935  0.089283817  0.030831232


 
 k-points in units of 2pi/SCALE and weight: K-Spacing Value to Generate K-Mesh: 0.03
   0.00000000  0.00000000  0.00000000       0.111
   0.03001964  0.00000000  0.00000000       0.222
   0.00000000  0.02976127  0.00000000       0.222
   0.03001964  0.02976127  0.00000000       0.222
   0.03001964 -0.02976127  0.00000000       0.222
 
 k-points in reciprocal lattice and weights: K-Spacing Value to Generate K-Mesh: 0.03
   0.00000000  0.00000000  0.00000000       0.111
   0.33333333  0.00000000  0.00000000       0.222
   0.00000000  0.33333333  0.00000000       0.222
   0.33333333  0.33333333  0.00000000       0.222
   0.33333333 -0.33333333  0.00000000       0.222
 
 position of ions in fractional coordinates (direct lattice) 
   0.00209358  0.99684618  0.47894857
   0.25505191  0.24681251  0.47894154
   0.25000000  0.25000000  0.11191300
   0.00000000  0.00000000  0.11191300
   0.00000000  0.00000000  0.23351800
   0.25000000  0.25000000  0.23351800
   0.24976457  0.25009173  0.35590046
   0.00449923  0.00095891  0.35581121
   0.00209392  0.49684578  0.47894836
   0.25505026  0.74681157  0.47894134
   0.25000000  0.75000000  0.11191300
   0.00000000  0.50000000  0.11191300
   0.00000000  0.50000000  0.23351800
   0.25000000  0.75000000  0.23351800
   0.24976323  0.75009013  0.35590161
   0.00449567  0.50095813  0.35580896
   0.50228013  0.99682933  0.47864620
   0.75485460  0.24681500  0.47865598
   0.75000000  0.25000000  0.11191300
   0.50000000  0.00000000  0.11191300
   0.50000000  0.00000000  0.23351800
   0.75000000  0.25000000  0.23351800
   0.74988058  0.25030550  0.35578652
   0.50441195  0.00107881  0.35568166
   0.50227845  0.49682627  0.47864445
   0.75485430  0.74681731  0.47865653
   0.75000000  0.75000000  0.11191300
   0.50000000  0.50000000  0.11191300
   0.50000000  0.50000000  0.23351800
   0.75000000  0.75000000  0.23351800
   0.74988077  0.75030208  0.35578639
   0.50441391  0.50108036  0.35567927
   0.14223400  0.10708000  0.12160500
   0.35776700  0.39292000  0.10222100
   0.39223300  0.14291900  0.10222100
   0.10776700  0.35708000  0.12160500
   0.10776700  0.35708000  0.22382700
   0.14223400  0.10708000  0.22382700
   0.46309600  0.00778100  0.17271600
   0.03690400  0.49221900  0.05111100
   0.21309600  0.24221900  0.05111100
   0.28690400  0.25778100  0.17271600
   0.15543806  0.10476728  0.36316517
   0.35335762  0.38996324  0.34546354
   0.39026276  0.14774468  0.34515612
   0.10690138  0.34640988  0.36307630
   0.12952354  0.37312260  0.47038447
   0.39223300  0.14291900  0.24321000
   0.35776700  0.39292000  0.24321000
   0.12768864  0.12312159  0.47042314
   0.47759737  0.00459396  0.41284983
   0.03530400  0.49278900  0.29486000
   0.21467900  0.24278500  0.29486100
   0.28034240  0.25498861  0.41327481
   0.14223400  0.60708100  0.12160500
   0.35776700  0.89291900  0.10222100
   0.39223300  0.64291900  0.10222100
   0.10776700  0.85708100  0.12160500
   0.10776700  0.85708100  0.22382700
   0.14223400  0.60708100  0.22382700
   0.46309600  0.50778100  0.17271600
   0.03690400  0.99221900  0.05111100
   0.21309600  0.74221900  0.05111100
   0.28690400  0.75778100  0.17271600
   0.15544057  0.60476516  0.36316370
   0.35335529  0.88997144  0.34546850
   0.39026260  0.64774588  0.34515470
   0.10690220  0.84640518  0.36307882
   0.12952023  0.87312452  0.47038516
   0.39223300  0.64291900  0.24321000
   0.35776700  0.89291900  0.24321000
   0.12768948  0.62312089  0.47042173
   0.47758941  0.50459169  0.41284681
   0.03530400  0.99279000  0.29486400
   0.21467800  0.74279400  0.29486300
   0.28034235  0.75497456  0.41327629
   0.64223300  0.10708000  0.12160500
   0.85776700  0.39292000  0.10222100
   0.89223300  0.14291900  0.10222100
   0.60776700  0.35708000  0.12160500
   0.60776700  0.35708000  0.22382700
   0.64223300  0.10708000  0.22382700
   0.96309600  0.00778100  0.17271600
   0.53690400  0.49221900  0.05111100
   0.71309600  0.24221900  0.05111100
   0.78690400  0.25778100  0.17271600
   0.65522730  0.10541298  0.36305248
   0.85370979  0.39021465  0.34540086
   0.89019909  0.14782638  0.34515779
   0.60707642  0.34696749  0.36289856
   0.62954843  0.37337743  0.47002322
   0.89223300  0.14291900  0.24321000
   0.85776700  0.39292000  0.24321000
   0.62763860  0.12335359  0.47000911
   0.97736153  0.00438169  0.41313719
   0.53532200  0.49278700  0.29486200
   0.71469700  0.24278500  0.29486200
   0.78014810  0.25542787  0.41298772
   0.64223300  0.60708100  0.12160500
   0.85776700  0.89291900  0.10222100
   0.89223300  0.64291900  0.10222100
   0.60776700  0.85708100  0.12160500
   0.60776700  0.85708100  0.22382700
   0.64223300  0.60708100  0.22382700
   0.96309600  0.50778100  0.17271600
   0.53690400  0.99221900  0.05111100
   0.71309600  0.74221900  0.05111100
   0.78690400  0.75778100  0.17271600
   0.65522800  0.60541127  0.36305011
   0.85371450  0.89021802  0.34540320
   0.89019713  0.64781883  0.34515476
   0.60707848  0.84696441  0.36289973
   0.62954926  0.87338126  0.47002717
   0.89223300  0.64291900  0.24321000
   0.85776700  0.89291900  0.24321000
   0.62763752  0.62335424  0.47000723
   0.97735475  0.50438051  0.41313555
   0.53532000  0.99278700  0.29486500
   0.71469600  0.74279200  0.29486400
   0.78014822  0.75542200  0.41298787
   0.87348579  0.12003042  0.47672750
   0.88016415  0.86839088  0.47689739
   0.37693833  0.11837159  0.47683220
   0.38349078  0.37009533  0.47678890
   0.87348482  0.62003582  0.47672826
   0.88016434  0.36838411  0.47689767
   0.37694237  0.61836867  0.47683151
   0.38348362  0.87010811  0.47678580
   0.25377300  0.01832700  0.05111100
   0.24622700  0.48167300  0.17271600
   0.00377300  0.23167300  0.17271600
   0.49622700  0.26832700  0.05111100
   0.25305600  0.01829800  0.29739900
   0.25602737  0.49524431  0.42362040
   0.00147852  0.24538434  0.42374396
   0.49694100  0.26829400  0.29740000
   0.25377300  0.51832700  0.05111100
   0.24622700  0.98167300  0.17271600
   0.00377300  0.73167300  0.17271600
   0.49622700  0.76832700  0.05111100
   0.25305700  0.51830100  0.29739600
   0.25602923  0.99524173  0.42362224
   0.00147793  0.74538728  0.42374444
   0.49694100  0.76830200  0.29740000
   0.75377300  0.01832700  0.05111100
   0.74622700  0.48167300  0.17271600
   0.50377300  0.23167300  0.17271600
   0.99622700  0.26832700  0.05111100
   0.75307200  0.01830200  0.29740300
   0.75562769  0.49527253  0.42342373
   0.50185506  0.24536157  0.42350785
   0.99693100  0.26829700  0.29739800
   0.75377300  0.51832700  0.05111100
   0.74622700  0.98167300  0.17271600
   0.50377300  0.73167300  0.17271600
   0.99622700  0.76832700  0.05111100
   0.75307400  0.51830400  0.29739900
   0.75562894  0.99527247  0.42342451
   0.50185287  0.74536587  0.42350825
   0.99693100  0.76830500  0.29739900
 
 position of ions in cartesian coordinates  (Angst):
   0.02324681 11.16491448 15.53452598
   2.83205555  2.76435880 15.53429775
   2.77596000  2.80005950  3.62985820
   0.00000000  0.00000000  3.62985820
   0.00000000  0.00000000  7.57407296
   2.77596000  2.80005950  7.57407296
   2.77334581  2.80108688 11.54350433
   0.04995868  0.01074003 11.54060944
   0.02325057  5.56479102 15.53451919
   2.83203727  8.36446736 15.53429137
   2.77596000  8.40017850  3.62985820
   0.00000000  5.60011900  3.62985820
   0.00000000  5.60011900  7.57407296
   2.77596000  8.40017850  7.57407296
   2.77333096  8.40118802 11.54354175
   0.04991924  5.61085024 11.54053672
   5.57723816 11.16472576 15.52471873
   8.38178473  2.76438678 15.52503571
   8.32788000  2.80005950  3.62985820
   5.55192000  0.00000000  3.62985820
   5.55192000  0.00000000  7.57407296
   8.32788000  2.80005950  7.57407296
   8.32655400  2.80348122 11.53980875
   5.60090955  0.01208296 11.53640770
   5.57721955  5.56457248 15.52466173
   8.38178137  8.36453164 15.52505376
   8.32788000  8.40017850  3.62985820
   5.55192000  5.60011900  3.62985820
   5.55192000  5.60011900  7.57407296
   8.32788000  8.40017850  7.57407296
   8.32655608  8.40356190 11.53980441
   5.60093136  5.61221928 11.53633022
   1.57934358  1.19932149  3.94421476
   3.97258753  4.40079751  3.31550164
   4.35529247  1.60072681  3.31550164
   1.19662753  3.99938099  3.94421476
   1.19662753  3.99938099  7.25974884
   1.57934358  1.19932149  7.25974884
   5.14214389  0.08714905  5.60198180
   0.40977611  5.51296995  1.65776704
   2.36618389  2.71291045  1.65776704
   3.18573611  2.88720855  5.60198180
   1.72595939  1.17341847 11.77913264
   3.92362645  4.36768108 11.20498672
   4.33341527  1.65477559 11.19501550
   1.18701580  3.87987307 11.77625014
   1.43820863  4.17906198 15.25675220
   4.35529247  1.60072681  7.88842952
   3.97258753  4.40079751  7.88842952
   1.41783428  1.37899110 15.25800653
   5.30316473  0.05145343 13.39063678
   0.39200997  5.51935408  9.56367883
   2.38376127  2.71924978  9.56371127
   3.11287713  2.85593311 13.40442103
   1.57934358  6.79945169  3.94421476
   3.97258753 10.00090531  3.31550164
   4.35529247  7.20084581  3.31550164
   1.19662753  9.59951119  3.94421476
   1.19662753  9.59951119  7.25974884
   1.57934358  6.79945169  7.25974884
   5.14214389  5.68726805  5.60198180
   0.40977611 11.11308895  1.65776704
   2.36618389  8.31302945  1.65776704
   3.18573611  8.48732755  5.60198180
   1.72598717  6.77351377 11.77908508
   3.92360059  9.96789191 11.20514736
   4.33341349  7.25490806 11.19496932
   1.18702494  9.47993946 11.77633184
   1.43817191  9.77920243 15.25677467
   4.35529247  7.20084581  7.88842952
   3.97258753 10.00090531  7.88842952
   1.41784360  6.97910226 15.25796074
   5.30307636  5.65154707 13.39053876
   0.39200997 11.11948428  9.56380857
   2.38375016  8.31946958  9.56377614
   3.11287659  8.45589480 13.40446892
   7.13125247  1.19932149  3.94421476
   9.52450753  4.40079751  3.31550164
   9.90721247  1.60072681  3.31550164
   6.74854753  3.99938099  3.94421476
   6.74854753  3.99938099  7.25974884
   7.13125247  1.19932149  7.25974884
  10.69406389  0.08714905  5.60198180
   5.96169611  5.51296995  1.65776704
   7.91810389  2.71291045  1.65776704
   8.73765611  2.88720855  5.60198180
   7.27553915  1.18065046 11.77547755
   9.47945693  4.37049695 11.20295356
   9.88462826  1.65569061 11.19506972
   6.74087939  3.88611847 11.77048518
   6.99040508  4.18191603 15.24503521
   9.90721247  1.60072681  7.88842952
   9.52450753  4.40079751  7.88842952
   6.96919864  1.38158953 15.24457753
  10.85246604  0.04907592 13.39995722
   5.94412984  5.51933168  9.56374370
   7.93588114  2.71924978  9.56374370
   8.66263966  2.86085297 13.39510941
   7.13125247  6.79945169  3.94421476
   9.52450753 10.00090531  3.31550164
   9.90721247  7.20084581  3.31550164
   6.74854753  9.59951119  3.94421476
   6.74854753  9.59951119  7.25974884
   7.13125247  6.79945169  7.25974884
  10.69406389  5.68726805  5.60198180
   5.96169611 11.11308895  1.65776704
   7.91810389  8.31302945  1.65776704
   8.73765611  8.48732755  5.60198180
   7.27554685  6.78075030 11.77540063
   9.47950925  9.97065370 11.20302951
   9.88460656  7.25572508 11.19497137
   6.74090231  9.48620293 11.77052317
   6.99041423  9.78207802 15.24516353
   9.90721247  7.20084581  7.88842952
   9.52450753 10.00090531  7.88842952
   6.96918656  6.98171587 15.24451666
  10.85239072  5.64918181 13.39990415
   5.94410763 11.11945068  9.56384101
   7.93587003  8.31944718  9.56380857
   8.66264099  8.46090618 13.39511413
   9.69904643  1.34436929 15.46248617
   9.77320193  9.72618451 15.46799656
   4.18546295  1.32578995 15.46588203
   4.25822024  4.14515577 15.46447780
   9.69903567  6.94454876 15.46251095
   9.77320404  4.12598970 15.46800561
   4.18550777  6.92587633 15.46585995
   4.25814071  9.74541791 15.46437725
   2.81785479  0.20526676  1.65776704
   2.73406521  5.39485224  5.60198180
   0.04189479  2.59479274  5.60198180
   5.51002521  3.00532626  1.65776704
   2.80989334  0.20494195  9.64603039
   2.84288697  5.54685416 13.73997656
   0.01641725  2.74836303 13.74398394
   5.51795335  3.00495665  9.64606283
   2.81785479  5.80538576  1.65776704
   2.73406521 10.99497124  5.60198180
   0.04189479  8.19491174  5.60198180
   5.51002521  8.60544526  1.65776704
   2.80990444  5.80509456  9.64593309
   2.84290764 11.14694425 13.74003604
   0.01641072  8.34851491 13.74399965
   5.51795335  8.60516526  9.64606283
   8.36977479  0.20526676  1.65776704
   8.28598521  5.39485224  5.60198180
   5.59381479  2.59479274  5.60198180
  11.06194521  3.00532626  1.65776704
   8.36199100  0.20498676  9.64616013
   8.39036899  5.54717018 13.73359767
   5.57251830  2.74810796 13.73632586
  11.06976232  3.00499025  9.64599796
   8.36977479  5.80538576  1.65776704
   8.28598521 10.99497124  5.60198180
   5.59381479  8.19491174  5.60198180
  11.06194521  8.60544526  1.65776704
   8.36201320  5.80512816  9.64603039
   8.39038286 11.14728850 13.73362283
   5.57249394  8.34827510 13.73633884
  11.06976232  8.60519886  9.64603039
 


--------------------------------------------------------------------------------------------------------


 k-point   1 :   0.0000 0.0000 0.0000  plane waves:  108581
 k-point   2 :   0.3333 0.0000 0.0000  plane waves:  108589
 k-point   3 :   0.0000 0.3333 0.0000  plane waves:  108640
 k-point   4 :   0.3333 0.3333 0.0000  plane waves:  108600
 k-point   5 :   0.3333-0.3333 0.0000  plane waves:  108600

 maximum and minimum number of plane-waves per node :    108640   108581

 maximum number of plane-waves:    108640
 maximum index in each direction: 
   IXMAX=   20   IYMAX=   21   IZMAX=   60
   IXMIN=  -20   IYMIN=  -21   IZMIN=  -60


 serial   3D FFT for wavefunctions
 parallel 3D FFT for charge:
    minimum data exchange during FFTs selected (reduces bandwidth)


 total amount of memory used by VASP MPI-rank0  3096483. kBytes
=======================================================================

   base      :      30000. kBytes
   nonl-proj :     695296. kBytes
   fftplans  :     264485. kBytes
   grid      :     297085. kBytes
   one-center:      15728. kBytes
   wavefun   :    1793889. kBytes
 
     INWAV:  cpu time      0.0001: real time      0.0003
 Broyden mixing: mesh for mixing (old mesh)
   NGX = 41   NGY = 41   NGZ =121
  (NGX  =168   NGY  =168   NGZ  =500)
  gives a total of 203401 points

 initial charge density was supplied:
 charge density of overlapping atoms calculated
 number of electron    1344.0000000 magnetization       0.0000000
 keeping initial charge density in first step


--------------------------------------------------------------------------------------------------------


 Maximum index for augmentation-charges         22262 (set IRDMAX)


--------------------------------------------------------------------------------------------------------


 First call to EWALD:  gamma=   0.111
 Maximum number of real-space cells 4x 4x 2
 Maximum number of reciprocal cells 2x 2x 5

    FEWALD:  cpu time      0.7942: real time      0.1398


--------------------------------------- Iteration      1(   1)  ---------------------------------------


    POTLOK:  cpu time      0.5643: real time      0.4025
    SETDIJ:  cpu time     30.7298: real time      8.7230
     EDDAV:  cpu time     32.7351: real time     32.8811
       DOS:  cpu time      0.0020: real time      0.0032
    --------------------------------------------
      LOOP:  cpu time     64.0312: real time     42.0099

 eigenvalue-minimisations  : 18192
 total energy-change (2. order) : 0.2378047E+05  (-0.5718862E+05)
 number of electron    1344.0000000 magnetization       0.0000000
 augmentation part     1344.0000000 magnetization       0.0000000

 DIPCOR: dipole corrections for dipol
 direction  3 min pos   383,
 dipolmoment           0.000000      0.000000     -0.000346 electrons x Angstroem
 Tr[quadrupol]    -29270.353314

 energy correction for charged system         0.000000 eV
 dipol+quadrupol energy correction           -0.000000 eV
 added-field ion interaction          0.004227 eV  (added to PSCEN)


 Free energy of the ion-electron system (eV)
  ---------------------------------------------------
  alpha Z        PSCENC =      3024.03774475
  Ewald energy   TEWEN  =    843801.32844327
  -Hartree energ DENC   =   -965918.76290344
  -exchange      EXHF   =         0.00000000
  -V(xc)+E(xc)   XCENC  =      5878.56995904
  PAW double counting   =    106509.21030441  -108061.05489264
  entropy T*S    EENTRO =        -0.13921736
  eigenvalues    EBANDS =      4521.36335412
  atomic energy  EATOM  =    134025.91802559
  Solvation  Ediel_sol  =         0.00000000
  ---------------------------------------------------
  free energy    TOTEN  =     23780.47081774 eV

  energy without entropy =    23780.61003510  energy(sigma->0) =    23780.54042642


--------------------------------------------------------------------------------------------------------




--------------------------------------- Iteration      1(   2)  ---------------------------------------


     EDDAV:  cpu time     30.1166: real time     29.9332
       DOS:  cpu time      0.0014: real time      0.0014
    --------------------------------------------
      LOOP:  cpu time     30.1180: real time     29.9347

 eigenvalue-minimisations  : 16216
 total energy-change (2. order) :-0.1582527E+05  (-0.1466271E+05)
 number of electron    1344.0000000 magnetization       0.0000000
 augmentation part     1344.0000000 magnetization       0.0000000

 DIPCOR: dipole corrections for dipol
 direction  3 min pos   383,
 dipolmoment           0.000000      0.000000     -0.000346 electrons x Angstroem
 Tr[quadrupol]    -29270.353314

 energy correction for charged system         0.000000 eV
 dipol+quadrupol energy correction           -0.000000 eV
 added-field ion interaction          0.004227 eV  (added to PSCEN)


 Free energy of the ion-electron system (eV)
  ---------------------------------------------------
  alpha Z        PSCENC =      3024.03774475
  Ewald energy   TEWEN  =    843801.32844327
  -Hartree energ DENC   =   -965918.76290344
  -exchange      EXHF   =         0.00000000
  -V(xc)+E(xc)   XCENC  =      5878.56995904
  PAW double counting   =    106509.21030441  -108061.05489264
  entropy T*S    EENTRO =        -0.57497113
  eigenvalues    EBANDS =    -11303.46935909
  atomic energy  EATOM  =    134025.91802559
  Solvation  Ediel_sol  =         0.00000000
  ---------------------------------------------------
  free energy    TOTEN  =      7955.20235076 eV

  energy without entropy =     7955.77732188  energy(sigma->0) =     7955.48983632


--------------------------------------------------------------------------------------------------------




[...]
      8.28599      5.39485      5.60198         0.069237      0.240561      0.231144
      5.59381      2.59479      5.60198         0.005814      0.280684      0.229454
     11.06195      3.00533      1.65777         0.284209     -0.127475      0.147242
      8.36199      0.20499      9.64616         0.218765     -0.270169     -0.816054
      8.39037      5.54717     13.73360        -0.299884      0.026889     -0.602899
      5.57252      2.74811     13.73633         0.154246      0.014301     -0.657886
     11.06976      3.00499      9.64600        -0.069059     -0.179109     -0.843940
      8.36977      5.80539      1.65777        -0.115852     -0.090083      0.094311
      8.28599     10.99497      5.60198         0.097345      0.153821      0.287014
      5.59381      8.19491      5.60198         0.026560      0.232004      0.239162
     11.06195      8.60545      1.65777         0.180991     -0.140835      0.272602
      8.36201      5.80513      9.64603         0.236794     -0.266846     -0.806803
      8.39038     11.14729     13.73362        -0.305213     -0.063169     -0.628737
      5.57249      8.34828     13.73634         0.167348     -0.000652     -0.687956
     11.06976      8.60520      9.64603        -0.061206     -0.185566     -0.796997
 -----------------------------------------------------------------------------------
    total drift:                               -0.021331     -0.029412     -1.773289


--------------------------------------------------------------------------------------------------------



  FREE ENERGIE OF THE ION-ELECTRON SYSTEM (eV)
  ---------------------------------------------------
  free  energy   TOTEN  =     -1165.91731476 eV

  energy  without entropy=    -1164.70753373  energy(sigma->0) =    -1165.31242424
 


--------------------------------------------------------------------------------------------------------


    POTLOK:  cpu time     37.1952: real time      9.9311


--------------------------------------------------------------------------------------------------------


 writing wavefunctions
     LOOP+:  cpu time  11279.1491: real time   7325.1763
    4ORBIT:  cpu time      0.0000: real time      0.0000



 total charge

# of ion       s       p       d       f       tot
--------------------------------------------------
    1        0.265   6.270   4.779   0.000  11.314
    2        0.265   6.271   4.779   0.000  11.316
    3        0.289   6.332   4.777   0.000  11.399
    4        0.289   6.332   4.778   0.000  11.398
    5        0.285   6.326   4.759   0.000  11.370
    6        0.286   6.326   4.759   0.000  11.371
    7        0.323   6.391   4.802   0.000  11.516
    8        0.280   6.313   4.771   0.000  11.364
    9        0.265   6.271   4.779   0.000  11.315
   10        0.265   6.271   4.779   0.000  11.316
   11        0.289   6.332   4.778   0.000  11.398
   12        0.289   6.331   4.778   0.000  11.398
   13        0.285   6.326   4.759   0.000  11.371
   14        0.286   6.326   4.759   0.000  11.371
   15        0.323   6.391   4.800   0.000  11.514
   16        0.280   6.313   4.770   0.000  11.363
   17        0.274   6.287   4.790   0.000  11.350
   18        0.274   6.287   4.790   0.000  11.351
   19        0.291   6.335   4.764   0.000  11.390
   20        0.290   6.334   4.766   0.000  11.391
   21        0.285   6.325   4.761   0.000  11.371
   22        0.285   6.326   4.761   0.000  11.372
   23        0.323   6.393   4.805   0.000  11.521
   24        0.280   6.314   4.781   0.000  11.375
   25        0.274   6.287   4.789   0.000  11.350
   26        0.274   6.287   4.790   0.000  11.351
   27        0.290   6.334   4.770   0.000  11.394
   28        0.290   6.334   4.769   0.000  11.392
   29        0.285   6.325   4.761   0.000  11.371
   30        0.285   6.325   4.763   0.000  11.373
   31        0.324   6.394   4.805   0.000  11.522
   32        0.281   6.315   4.774   0.000  11.371
   33        1.567   3.430   0.000   0.000   4.996
   34        1.563   3.438   0.000   0.000   5.001
   35        1.563   3.439   0.000   0.000   5.002
   36        1.566   3.430   0.000   0.000   4.995
   37        1.564   3.430   0.000   0.000   4.994
   38        1.565   3.429   0.000   0.000   4.994
   39        1.565   3.443   0.000   0.000   5.008
   40        1.566   3.377   0.000   0.000   4.944
   41        1.566   3.379   0.000   0.000   4.945
   42        1.565   3.443   0.000   0.000   5.008
   43        1.567   3.418   0.000   0.000   4.985
   44        1.566   3.425   0.000   0.000   4.991
   45        1.566   3.432   0.000   0.000   4.998
   46        1.567   3.417   0.000   0.000   4.984
   47        1.561   3.435   0.000   0.000   4.996
   48        1.563   3.421   0.000   0.000   4.984
   49        1.563   3.422   0.000   0.000   4.985
   50        1.561   3.434   0.000   0.000   4.995
   51        1.571   3.426   0.000   0.000   4.997
   52        1.565   3.443   0.000   0.000   5.008
   53        1.567   3.434   0.000   0.000   5.001
   54        1.571   3.421   0.000   0.000   4.992
   55        1.567   3.428   0.000   0.000   4.995
   56        1.563   3.440   0.000   0.000   5.003
   57        1.563   3.439   0.000   0.000   5.002
   58        1.566   3.429   0.000   0.000   4.995
   59        1.564   3.429   0.000   0.000   4.993
   60        1.565   3.428   0.000   0.000   4.994
   61        1.566   3.443   0.000   0.000   5.009
   62        1.566   3.377   0.000   0.000   4.944
   63        1.566   3.379   0.000   0.000   4.945
   64        1.565   3.443   0.000   0.000   5.008
   65        1.567   3.419   0.000   0.000   4.985
   66        1.566   3.426   0.000   0.000   4.992
   67        1.566   3.432   0.000   0.000   4.998
   68        1.567   3.416   0.000   0.000   4.983
   69        1.561   3.433   0.000   0.000   4.994
   70        1.563   3.422   0.000   0.000   4.985
   71        1.563   3.423   0.000   0.000   4.986
   72        1.561   3.435   0.000   0.000   4.996
   73        1.571   3.427   0.000   0.000   4.998
   74        1.565   3.444   0.000   0.000   5.008
   75        1.567   3.435   0.000   0.000   5.001
   76        1.571   3.423   0.000   0.000   4.994
   77        1.565   3.429   0.000   0.000   4.994
   78        1.563   3.439   0.000   0.000   5.002
   79        1.563   3.438   0.000   0.000   5.001
   80        1.565   3.428   0.000   0.000   4.994
   81        1.565   3.427   0.000   0.000   4.992
   82        1.565   3.427   0.000   0.000   4.992
   83        1.565   3.442   0.000   0.000   5.008
   84        1.566   3.378   0.000   0.000   4.944
   85        1.566   3.377   0.000   0.000   4.943
   86        1.565   3.444   0.000   0.000   5.009
   87        1.567   3.419   0.000   0.000   4.986
   88        1.566   3.425   0.000   0.000   4.991
   89        1.566   3.430   0.000   0.000   4.997
   90        1.567   3.418   0.000   0.000   4.984
   91        1.561   3.437   0.000   0.000   4.998
   92        1.563   3.421   0.000   0.000   4.984
   93        1.564   3.423   0.000   0.000   4.986
   94        1.561   3.436   0.000   0.000   4.997
   95        1.570   3.427   0.000   0.000   4.997
   96        1.565   3.443   0.000   0.000   5.008
   97        1.567   3.434   0.000   0.000   5.001
   98        1.572   3.420   0.000   0.000   4.992
   99        1.566   3.431   0.000   0.000   4.997
  100        1.563   3.439   0.000   0.000   5.001
  101        1.563   3.438   0.000   0.000   5.001
  102        1.566   3.428   0.000   0.000   4.994
  103        1.565   3.428   0.000   0.000   4.993
  104        1.564   3.429   0.000   0.000   4.994
  105        1.565   3.444   0.000   0.000   5.009
  106        1.566   3.376   0.000   0.000   4.942
  107        1.566   3.379   0.000   0.000   4.945
  108        1.566   3.443   0.000   0.000   5.008
  109        1.567   3.419   0.000   0.000   4.986
  110        1.566   3.425   0.000   0.000   4.991
  111        1.566   3.430   0.000   0.000   4.996
  112        1.567   3.420   0.000   0.000   4.987
  113        1.561   3.438   0.000   0.000   4.999
  114        1.563   3.421   0.000   0.000   4.984
  115        1.563   3.421   0.000   0.000   4.984
  116        1.561   3.438   0.000   0.000   4.999
  117        1.571   3.425   0.000   0.000   4.996
  118        1.565   3.443   0.000   0.000   5.008
  119        1.567   3.435   0.000   0.000   5.002
  120        1.572   3.420   0.000   0.000   4.992
  121        1.560   3.426   0.000   0.000   4.987
  122        1.560   3.426   0.000   0.000   4.986
  123        1.560   3.426   0.000   0.000   4.986
  124        1.560   3.426   0.000   0.000   4.986
  125        1.560   3.429   0.000   0.000   4.988
  126        1.560   3.427   0.000   0.000   4.987
  127        1.561   3.425   0.000   0.000   4.986
  128        1.560   3.427   0.000   0.000   4.987
  129        1.961   5.606   0.392   0.852   8.811
  130        2.004   5.662   0.466   0.695   8.827
  131        2.003   5.662   0.467   0.774   8.905
  132        1.995   5.584   0.396   1.066   9.041
  133        2.005   5.667   0.485   0.810   8.968
  134        1.998   5.663   0.456   0.387   8.505
  135        1.999   5.661   0.457   0.335   8.452
  136        2.006   5.666   0.485   0.674   8.831
  137        1.995   5.584   0.397   0.784   8.761
  138        2.000   5.662   0.468   0.579   8.709
  139        2.004   5.660   0.464   0.679   8.808
  140        1.956   5.612   0.394   0.932   8.894
  141        2.006   5.666   0.484   0.745   8.902
  142        1.998   5.662   0.455   0.323   8.439
  143        2.003   5.662   0.462   0.560   8.686
  144        2.005   5.666   0.488   0.641   8.799
  145        1.993   5.585   0.398   0.659   8.635
  146        2.003   5.663   0.468   0.835   8.969
  147        2.005   5.659   0.462   0.609   8.734
  148        1.965   5.602   0.390   0.795   8.751
  149        2.006   5.667   0.484   0.741   8.898
  150        2.001   5.663   0.463   0.454   8.581
  151        2.004   5.664   0.467   0.672   8.806
  152        2.006   5.666   0.487   0.742   8.901
  153        1.982   5.591   0.394   0.997   8.963
  154        2.003   5.661   0.466   0.763   8.894
  155        2.005   5.659   0.462   0.566   8.693
  156        1.994   5.584   0.398   0.813   8.789
  157        2.007   5.666   0.482   0.744   8.899
  158        1.999   5.662   0.460   0.282   8.404
  159        2.003   5.664   0.469   0.767   8.903
  160        2.006   5.666   0.487   0.658   8.818
--------------------------------------------------
tot        223.327 711.870 167.297  21.9351124.429



 magnetization (x)

# of ion       s       p       d       f       tot
--------------------------------------------------
    1        0.036   0.032   3.826   0.000   3.894
    2        0.036   0.032   3.823   0.000   3.892
    3        0.021   0.031   3.571   0.000   3.622
    4        0.021   0.031   3.577   0.000   3.629
    5        0.021   0.030   3.547   0.000   3.598
    6        0.021   0.030   3.533   0.000   3.584
    7        0.020   0.025   3.236   0.000   3.281
    8        0.022   0.027   3.601   0.000   3.650
    9        0.037   0.032   3.822   0.000   3.891
   10        0.036   0.032   3.822   0.000   3.890
   11        0.021   0.031   3.575   0.000   3.628
   12        0.021   0.031   3.579   0.000   3.630
   13        0.021   0.029   3.546   0.000   3.596
   14        0.021   0.029   3.541   0.000   3.592
   15        0.020   0.025   3.230   0.000   3.275
   16        0.022   0.026   3.603   0.000   3.652
   17       -0.037  -0.033  -3.780   0.000  -3.850
   18       -0.037  -0.033  -3.779   0.000  -3.849
   19       -0.021  -0.030  -3.496   0.000  -3.547
   20       -0.021  -0.030  -3.508   0.000  -3.559
   21       -0.021  -0.030  -3.560   0.000  -3.611
   22       -0.022  -0.030  -3.546   0.000  -3.597
   23       -0.019  -0.025  -3.239   0.000  -3.283
   24       -0.022  -0.026  -3.632   0.000  -3.679
   25       -0.037  -0.033  -3.776   0.000  -3.846
   26       -0.037  -0.034  -3.777   0.000  -3.847
   27       -0.021  -0.031  -3.528   0.000  -3.580
   28       -0.021  -0.030  -3.529   0.000  -3.580
   29       -0.021  -0.030  -3.555   0.000  -3.606
   30       -0.021  -0.029  -3.567   0.000  -3.617
   31       -0.020  -0.026  -3.235   0.000  -3.280
   32       -0.022  -0.026  -3.601   0.000  -3.649
   33        0.002  -0.112   0.000   0.000  -0.110
   34       -0.000   0.008   0.000   0.000   0.008
   35       -0.001  -0.002   0.000   0.000  -0.003
   36        0.001  -0.113   0.000   0.000  -0.111
   37        0.000  -0.104   0.000   0.000  -0.104
   38        0.001  -0.106   0.000   0.000  -0.105
   39       -0.002   0.087   0.000   0.000   0.086
   40       -0.000  -0.081   0.000   0.000  -0.081
   41       -0.000  -0.078   0.000   0.000  -0.078
   42        0.001  -0.094   0.000   0.000  -0.093
   43       -0.000  -0.134   0.000   0.000  -0.135
   44       -0.001   0.019   0.000   0.000   0.017
   45       -0.002   0.002   0.000   0.000   0.000
   46       -0.000  -0.127   0.000   0.000  -0.127
   47       -0.002  -0.075   0.000   0.000  -0.077
   48       -0.001  -0.006   0.000   0.000  -0.007
   49       -0.000   0.000   0.000   0.000   0.000
   50       -0.002  -0.077   0.000   0.000  -0.079
   51       -0.006   0.104   0.000   0.000   0.098
   52        0.002  -0.055   0.000   0.000  -0.053
   53        0.002  -0.050   0.000   0.000  -0.047
   54        0.005  -0.107   0.000   0.000  -0.102
   55        0.002  -0.110   0.000   0.000  -0.108
   56        0.001   0.017   0.000   0.000   0.017
   57        0.000   0.005   0.000   0.000   0.005
   58        0.001  -0.111   0.000   0.000  -0.109
   59       -0.000  -0.105   0.000   0.000  -0.105
   60        0.001  -0.104   0.000   0.000  -0.103
   61       -0.002   0.090   0.000   0.000   0.088
   62        0.000  -0.078   0.000   0.000  -0.078
   63        0.000  -0.071   0.000   0.000  -0.071
   64        0.001  -0.096   0.000   0.000  -0.095
   65       -0.000  -0.132   0.000   0.000  -0.133
   66       -0.001   0.012   0.000   0.000   0.010
   67       -0.001   0.010   0.000   0.000   0.008
   68       -0.000  -0.124   0.000   0.000  -0.124
   69       -0.002  -0.091   0.000   0.000  -0.093
   70       -0.001  -0.007   0.000   0.000  -0.008
   71       -0.000  -0.002   0.000   0.000  -0.003
   72       -0.002  -0.079   0.000   0.000  -0.081
   73       -0.006   0.096   0.000   0.000   0.090
   74        0.002  -0.046   0.000   0.000  -0.043
   75        0.003  -0.045   0.000   0.000  -0.043
   76        0.005  -0.099   0.000   0.000  -0.094
   77       -0.001   0.100   0.000   0.000   0.098
   78        0.001   0.013   0.000   0.000   0.014
   79        0.000   0.008   0.000   0.000   0.008
   80       -0.001   0.104   0.000   0.000   0.103
   81       -0.002   0.101   0.000   0.000   0.100
   82       -0.002   0.101   0.000   0.000   0.100
   83        0.001  -0.097   0.000   0.000  -0.096
   84       -0.000   0.077   0.000   0.000   0.076
   85       -0.001   0.072   0.000   0.000   0.072
   86       -0.002   0.087   0.000   0.000   0.085
   87       -0.001   0.128   0.000   0.000   0.127
   88        0.000  -0.026   0.000   0.000  -0.025
   89        0.001  -0.015   0.000   0.000  -0.014
   90       -0.001   0.118   0.000   0.000   0.117
   91        0.002   0.075   0.000   0.000   0.077
   92       -0.001  -0.007   0.000   0.000  -0.008
   93       -0.001  -0.009   0.000   0.000  -0.010
   94        0.001   0.068   0.000   0.000   0.069
   95        0.005  -0.088   0.000   0.000  -0.083
   96       -0.003   0.044   0.000   0.000   0.041
   97       -0.003   0.050   0.000   0.000   0.047
   98       -0.006   0.112   0.000   0.000   0.106
   99       -0.002   0.103   0.000   0.000   0.101
  100       -0.000   0.004   0.000   0.000   0.004
  101        0.000   0.011   0.000   0.000   0.011
  102       -0.002   0.104   0.000   0.000   0.102
  103       -0.001   0.101   0.000   0.000   0.099
  104       -0.001   0.098   0.000   0.000   0.097
  105        0.001  -0.094   0.000   0.000  -0.093
  106       -0.000   0.080   0.000   0.000   0.080
  107       -0.000   0.076   0.000   0.000   0.076
  108       -0.002   0.087   0.000   0.000   0.085
  109       -0.000   0.128   0.000   0.000   0.127
  110        0.000  -0.017   0.000   0.000  -0.016
  111        0.001  -0.016   0.000   0.000  -0.015
  112       -0.001   0.118   0.000   0.000   0.117
  113        0.001   0.067   0.000   0.000   0.068
  114       -0.000  -0.011   0.000   0.000  -0.011
  115       -0.000  -0.004   0.000   0.000  -0.004
  116        0.001   0.074   0.000   0.000   0.075
  117        0.005  -0.103   0.000   0.000  -0.097
  118       -0.003   0.048   0.000   0.000   0.045
  119       -0.004   0.044   0.000   0.000   0.040
  120       -0.006   0.111   0.000   0.000   0.105
  121       -0.000  -0.009   0.000   0.000  -0.009
  122        0.000   0.021   0.000   0.000   0.021
  123        0.000   0.000   0.000   0.000   0.000
  124       -0.000  -0.007   0.000   0.000  -0.007
  125       -0.000  -0.018   0.000   0.000  -0.019
  126        0.000   0.017   0.000   0.000   0.018
  127        0.000   0.016   0.000   0.000   0.016
  128       -0.000  -0.014   0.000   0.000  -0.015
  129        0.061  -0.043   0.006   0.727   0.751
  130       -0.014   0.005  -0.004  -0.383  -0.395
  131       -0.012   0.003  -0.001  -0.363  -0.373
  132       -0.018   0.008  -0.008  -0.660  -0.677
  133       -0.011   0.005  -0.002  -0.432  -0.441
  134        0.020  -0.011  -0.000   0.067   0.076
  135       -0.002  -0.001  -0.001  -0.078  -0.082
  136       -0.013   0.004  -0.009  -0.358  -0.376
  137        0.017  -0.009   0.007   0.411   0.426
  138        0.004  -0.004   0.001  -0.071  -0.070
  139       -0.014   0.005  -0.003  -0.381  -0.393
  140       -0.067   0.048  -0.008  -0.825  -0.852
  141       -0.012   0.006  -0.003  -0.420  -0.429
  142       -0.004   0.001  -0.004  -0.119  -0.125
  143       -0.012   0.004  -0.005  -0.301  -0.313
  144       -0.013   0.004  -0.010  -0.331  -0.350
  145       -0.000  -0.000  -0.005  -0.156  -0.161
  146       -0.013   0.005  -0.009  -0.470  -0.488
  147       -0.016   0.008  -0.010  -0.351  -0.369
  148        0.057  -0.039   0.006   0.688   0.712
  149       -0.013   0.005  -0.010  -0.409  -0.427
  150       -0.011   0.006  -0.010  -0.217  -0.232
  151       -0.013   0.005  -0.012  -0.373  -0.393
  152       -0.011   0.005  -0.003  -0.386  -0.396
  153       -0.038   0.019  -0.010  -0.835  -0.863
  154       -0.014   0.006  -0.009  -0.434  -0.450
  155       -0.017   0.008  -0.011  -0.332  -0.351
  156        0.016  -0.008   0.005   0.369   0.382
  157       -0.014   0.005  -0.010  -0.428  -0.448
  158       -0.003   0.003  -0.009  -0.079  -0.088
  159       -0.012   0.006  -0.011  -0.410  -0.427
  160       -0.012   0.006  -0.005  -0.359  -0.371
--------------------------------------------------
tot         -0.232  -0.074   0.171  -7.701  -7.836
 

 total amount of memory used by VASP MPI-rank0  3096483. kBytes
=======================================================================

   base      :      30000. kBytes
   nonl-proj :     695296. kBytes
   fftplans  :     264485. kBytes
   grid      :     297085. kBytes
   one-center:      15728. kBytes
   wavefun   :    1793889. kBytes
 
  
  
 General timing and accounting informations for this job:
 ========================================================
  
                  Total CPU time used (sec):    11387.599
                            User time (sec):     8750.214
                          System time (sec):     2637.384
                         Elapsed time (sec):     7417.480
  
                   Maximum memory used (kb):     8971448.
                   Average memory used (kb):          N/A
  
                          Minor page faults:      6357910
                          Major page faults:           49
                 Voluntary context switches:       462332
