 Entering Gaussian System, Link 0=g16
 Input=one_3_frag_2.gjf
 Output=one_3_frag_2.log
 Initial command:
 /apps/applications/G16/g16.c01/l1.exe "/scratch/x2848a03/calculation/H2_COF/H2_cate_opt/Gau-727.inp" -scrdir="/scratch/x2848a03/calculation/H2_COF/H2_cate_opt/"
 Default CPUs for threads: 5-9,20,26-29
 Default is to use a total of  10 processors:
                               10 via shared-memory
                                1 via Linda
 Entering Link 1 = /apps/applications/G16/g16.c01/l1.exe PID=       728.
  
 Copyright (c) 1988-2019, Gaussian, Inc.  All Rights Reserved.
  
 This is part of the Gaussian(R) 16 program.  It is based on
 the Gaussian(R) 09 system (copyright 2009, Gaussian, Inc.),
 the Gaussian(R) 03 system (copyright 2003, Gaussian, Inc.),
 the Gaussian(R) 98 system (copyright 1998, Gaussian, Inc.),
 the Gaussian(R) 94 system (copyright 1995, Gaussian, Inc.),
 the Gaussian 92(TM) system (copyright 1992, Gaussian, Inc.),
 the Gaussian 90(TM) system (copyright 1990, Gaussian, Inc.),
 the Gaussian 88(TM) system (copyright 1988, Gaussian, Inc.),
 the Gaussian 86(TM) system (copyright 1986, Carnegie Mellon
 University), and the Gaussian 82(TM) system (copyright 1983,
 Carnegie Mellon University). Gaussian is a federally registered
 trademark of Gaussian, Inc.
  
 This software contains proprietary and confidential information,
 including trade secrets, belonging to Gaussian, Inc.
  
 This software is provided under written license and may be
 used, copied, transmitted, or stored only in accord with that
 written license.
  
 The following legend is applicable only to US Government
 contracts under FAR:
  
                    RESTRICTED RIGHTS LEGEND
  
 Use, reproduction and disclosure by the US Government is
 subject to restrictions as set forth in subparagraphs (a)
 and (c) of the Commercial Computer Software - Restricted
 Rights clause in FAR 52.227-19.
  
 Gaussian, Inc.
 340 Quinnipiac St., Bldg. 40, Wallingford CT 06492
  
  
 ---------------------------------------------------------------
 Warning -- This program may not be used in any manner that
 competes with the business of Gaussian, Inc. or will provide
 assistance to any competitor of Gaussian, Inc.  The licensee
 of this program is prohibited from giving any competitor of
 Gaussian, Inc. access to this program.  By using this program,
 the user acknowledges that Gaussian, Inc. is engaged in the
 business of creating and licensing software in the field of
 computational chemistry and represents and warrants to the
 licensee that it is not a competitor of Gaussian, Inc. and that
 it will not use this program in any manner prohibited above.
 ---------------------------------------------------------------
  

 Cite this work as:
 Gaussian 16, Revision C.01,
 M. J. Frisch, G. W. Trucks, H. B. Schlegel, G. E. Scuseria, 
 M. A. Robb, J. R. Cheeseman, G. Scalmani, V. Barone, 
 G. A. Petersson, H. Nakatsuji, X. Li, M. Caricato, A. V. Marenich, 
 J. Bloino, B. G. Janesko, R. Gomperts, B. Mennucci, H. P. Hratchian, 
 J. V. Ortiz, A. F. Izmaylov, J. L. Sonnenberg, D. Williams-Young, 
 F. Ding, F. Lipparini, F. Egidi, J. Goings, B. Peng, A. Petrone, 
 T. Henderson, D. Ranasinghe, V. G. Zakrzewski, J. Gao, N. Rega, 
 G. Zheng, W. Liang, M. Hada, M. Ehara, K. Toyota, R. Fukuda, 
 J. Hasegawa, M. Ishida, T. Nakajima, Y. Honda, O. Kitao, H. Nakai, 
 T. Vreven, K. Throssell, J. A. Montgomery, Jr., J. E. Peralta, 
 F. Ogliaro, M. J. Bearpark, J. J. Heyd, E. N. Brothers, K. N. Kudin, 
 V. N. Staroverov, T. A. Keith, R. Kobayashi, J. Normand, 
 K. Raghavachari, A. P. Rendell, J. C. Burant, S. S. Iyengar, 
 J. Tomasi, M. Cossi, J. M. Millam, M. Klene, C. Adamo, R. Cammi, 
 J. W. Ochterski, R. L. Martin, K. Morokuma, O. Farkas, 
 J. B. Foresman, and D. J. Fox, Gaussian, Inc., Wallingford CT, 2019.
 
 ******************************************
 Gaussian 16:  ES64L-G16RevC.01  3-Jul-2019
                12-Sep-2024 
 ******************************************
 SetSPE:  set environment variable "MP_BIND" = "yes"
 SetSPE:  set environment variable "MP_BLIST" = "5,6,7,8,9,20,26,27,28,29"
 Will use    1 GPUs:
 Thread  CPU   GPU
      0    5     0
      1    6    -1
      2    7    -1
      3    8    -1
      4    9    -1
      5   20    -1
      6   26    -1
      7   27    -1
      8   28    -1
      9   29    -1
 SetGPE:  set environment variable "MP_BIND" = "yes"
 SetGPE:  set environment variable "MP_BLIST" = "5,6,7,8,9,20,26,27,28,29"
 Properties for Device   0
 Minimum vector length:                              32
 Maximum vector length:                            1024
 Number of SMPs:                                     80
 Maximum number of threads per SMP:                2048
 Number of ASync Engines:                             7
 Memory:                                           3193987072
   2874588364 words of memory will be used on each GPU.
 -------------------------------------------------
 # opt freq MP2/6-311+g(d,p) nosymm counterpoise=3
 -------------------------------------------------
 1/18=20,19=15,38=1,62=3/1,3;
 2/9=110,12=2,15=1,17=6,18=5,40=1/2;
 1/18=20,19=15,38=1,53=2,62=3,63=101/22;
 3/5=4,6=6,7=111,11=9,25=1,30=1,71=1/1,2,3;
 4//1;
 5/5=2,38=5/2;
 8/6=4,10=2/1;
 9/15=2,16=-3/6;
 10/5=1,31=1/2;
 6/7=2,8=2,9=2,10=2/1;
 7/7=1,12=2,30=1,33=-1/1,2,3,16;
 1/18=20,19=15,53=2,62=3,63=101/22;
 3/5=7,6=11,7=111,11=9,25=1,30=1,71=1,82=7/1,2,3;
 4//1;
 5/5=2,38=5/2;
 8/6=4,10=2/1;
 9/15=2,16=-3/6;
 10/5=1,31=1/2;
 6/7=2,8=2,9=2,10=2/1;
 7/7=1,12=2,30=1,33=-1/1,2,3,16;
 1/18=20,19=15,53=2,62=3,63=101/22(-8);
 7/9=1,44=-1,126=2/16;
 1/18=20,19=15,62=3/3(2);
 2/9=110,15=1/2;
 99//99;
 2/9=110,15=1/2;
 1/18=20,19=15,53=3,62=3,63=101/22;
 3/5=7,6=11,7=111,11=9,25=1,30=1,71=1,82=7/1,2,3;
 4/5=5,16=3,69=1/1;
 5/5=2,38=5/2;
 8/6=4,10=2/1;
 9/15=2,16=-3/6;
 10/5=1,31=1/2;
 7/7=1,12=2,30=1,33=-1/1,2,3,16;
 1/18=20,19=15,53=3,62=3,63=101/22(-7);
 7/9=1,44=-1,126=2/16;
 1/18=20,19=15,62=3/3(-11);
 2/9=110,15=1/2;
 99/9=10/99;
 ------------
 one_3_frag_2
 ------------
 Symbolic Z-matrix:
 Charge =  0 Multiplicity = 1 in supermolecule
 Charge =  0 Multiplicity = 1 in fragment      1.
 Charge =  0 Multiplicity = 1 in fragment      2.
 Charge =  0 Multiplicity = 1 in fragment      3.
 C(Fragment=1)        -1   -0.03215   1.38042   0.05303 
 C(Fragment=1)        -1   -1.23749   0.70046  -0.00786 
 C(Fragment=1)        -1   -1.23752  -0.70037  -0.06429 
 C(Fragment=1)        -1   -0.02414  -1.40145  -0.02709 
 C(Fragment=1)        -1    1.19764  -0.71015   0.01725 
 C(Fragment=1)        -1    1.20908   0.74872  -0.0185 
 O(Fragment=1)        -1    2.37447   1.39928   0.02685 
 O(Fragment=1)        -1    2.38026  -1.40444  -0.00257 
 H(Fragment=1)        -1   -2.17586  -1.2491    0. 
 H(Fragment=1)        -1   -2.17583   1.24922   0. 
 Mg(Fragment=1)       -1    3.63387  -0.01275  -0.04006 
 H(Fragment=1)        -1    0.00115   2.48713  -0.00203 
 H(Fragment=1)        -1    0.00094  -2.48723   0.06527 
 H(Fragment=2)        0     5.84244   0.01387   0.41936 
 H(Fragment=2)        0     5.64453   0.27119   1.07086 
 H(Fragment=3)        0     5.08932   1.61003  -1.29871 
 H(Fragment=3)        0     4.41021   1.90019  -1.187 
 
 Add virtual bond connecting atoms H14        and Mg11       Dist= 4.26D+00.
 Add virtual bond connecting atoms H15        and Mg11       Dist= 4.37D+00.
 Add virtual bond connecting atoms H16        and Mg11       Dist= 4.76D+00.
 Add virtual bond connecting atoms H16        and H14        Dist= 4.65D+00.
 Add virtual bond connecting atoms H17        and O7         Dist= 4.58D+00.
 Add virtual bond connecting atoms H17        and Mg11       Dist= 4.46D+00.

 GradGradGradGradGradGradGradGradGradGradGradGradGradGradGradGradGradGrad
 Berny optimization.
 Initialization pass.
                           ----------------------------
                           !    Initial Parameters    !
                           ! (Angstroms and Degrees)  !
 --------------------------                            --------------------------
 ! Name  Definition              Value          Derivative Info.                !
 --------------------------------------------------------------------------------
 ! X1    R(1,-1)                -0.0321         Frozen                          !
 ! Y1    R(1,-2)                 1.3804         Frozen                          !
 ! Z1    R(1,-3)                 0.053          Frozen                          !
 ! X2    R(2,-1)                -1.2375         Frozen                          !
 ! Y2    R(2,-2)                 0.7005         Frozen                          !
 ! Z2    R(2,-3)                -0.0079         Frozen                          !
 ! X3    R(3,-1)                -1.2375         Frozen                          !
 ! Y3    R(3,-2)                -0.7004         Frozen                          !
 ! Z3    R(3,-3)                -0.0643         Frozen                          !
 ! X4    R(4,-1)                -0.0241         Frozen                          !
 ! Y4    R(4,-2)                -1.4015         Frozen                          !
 ! Z4    R(4,-3)                -0.0271         Frozen                          !
 ! X5    R(5,-1)                 1.1976         Frozen                          !
 ! Y5    R(5,-2)                -0.7102         Frozen                          !
 ! Z5    R(5,-3)                 0.0173         Frozen                          !
 ! X6    R(6,-1)                 1.2091         Frozen                          !
 ! Y6    R(6,-2)                 0.7487         Frozen                          !
 ! Z6    R(6,-3)                -0.0185         Frozen                          !
 ! X7    R(7,-1)                 2.3745         Frozen                          !
 ! Y7    R(7,-2)                 1.3993         Frozen                          !
 ! Z7    R(7,-3)                 0.0269         Frozen                          !
 ! X8    R(8,-1)                 2.3803         Frozen                          !
 ! Y8    R(8,-2)                -1.4044         Frozen                          !
 ! Z8    R(8,-3)                -0.0026         Frozen                          !
 ! X9    R(9,-1)                -2.1759         Frozen                          !
 ! Y9    R(9,-2)                -1.2491         Frozen                          !
 ! Z9    R(9,-3)                 0.0            Frozen                          !
 ! X10   R(10,-1)               -2.1758         Frozen                          !
 ! Y10   R(10,-2)                1.2492         Frozen                          !
 ! Z10   R(10,-3)                0.0            Frozen                          !
 ! X11   R(11,-1)                3.6339         Frozen                          !
 ! Y11   R(11,-2)               -0.0128         Frozen                          !
 ! Z11   R(11,-3)               -0.0401         Frozen                          !
 ! X12   R(12,-1)                0.0012         Frozen                          !
 ! Y12   R(12,-2)                2.4871         Frozen                          !
 ! Z12   R(12,-3)               -0.002          Frozen                          !
 ! X13   R(13,-1)                0.0009         Frozen                          !
 ! Y13   R(13,-2)               -2.4872         Frozen                          !
 ! Z13   R(13,-3)                0.0653         Frozen                          !
 ! R1    R(7,17)                 2.4225         estimate D2E/DX2                !
 ! R2    R(11,14)                2.256          estimate D2E/DX2                !
 ! R3    R(11,15)                2.3146         estimate D2E/DX2                !
 ! R4    R(11,16)                2.5171         estimate D2E/DX2                !
 ! R5    R(11,17)                2.3617         estimate D2E/DX2                !
 ! R6    R(14,15)                0.7279         estimate D2E/DX2                !
 ! R7    R(14,16)                2.4631         estimate D2E/DX2                !
 ! R8    R(16,17)                0.7469         estimate D2E/DX2                !
 ! A1    A(6,7,17)             144.7901         estimate D2E/DX2                !
 ! A2    A(7,11,14)            129.4364         estimate D2E/DX2                !
 ! A3    A(7,11,15)            117.9946         estimate D2E/DX2                !
 ! A4    A(7,11,16)             85.4965         estimate D2E/DX2                !
 ! A5    A(8,11,14)            131.2823         estimate D2E/DX2                !
 ! A6    A(8,11,15)            131.5136         estimate D2E/DX2                !
 ! A7    A(8,11,16)            151.1442         estimate D2E/DX2                !
 ! A8    A(8,11,17)            146.2423         estimate D2E/DX2                !
 ! A9    A(14,11,17)            76.5573         estimate D2E/DX2                !
 ! A10   A(15,11,16)            70.0392         estimate D2E/DX2                !
 ! A11   A(15,11,17)            81.2669         estimate D2E/DX2                !
 ! A12   A(15,14,16)           108.1855         estimate D2E/DX2                !
 ! A13   A(14,16,17)           115.1786         estimate D2E/DX2                !
 ! A14   A(7,17,16)            139.3477         estimate D2E/DX2                !
 ! D1    D(1,6,7,17)          -118.2428         estimate D2E/DX2                !
 ! D2    D(5,6,7,17)            69.3113         estimate D2E/DX2                !
 ! D3    D(6,7,11,14)         -165.4099         estimate D2E/DX2                !
 ! D4    D(6,7,11,15)         -148.2006         estimate D2E/DX2                !
 ! D5    D(6,7,11,16)          147.2467         estimate D2E/DX2                !
 ! D6    D(6,7,17,16)          -86.8326         estimate D2E/DX2                !
 ! D7    D(5,8,11,14)          162.6145         estimate D2E/DX2                !
 ! D8    D(5,8,11,15)          138.1806         estimate D2E/DX2                !
 ! D9    D(5,8,11,16)          -90.389          estimate D2E/DX2                !
 ! D10   D(5,8,11,17)          -58.1952         estimate D2E/DX2                !
 ! D11   D(15,14,16,17)        -40.7646         estimate D2E/DX2                !
 ! D12   D(14,16,17,7)         -21.2887         estimate D2E/DX2                !
 --------------------------------------------------------------------------------
 Trust Radius=3.00D-01 FncErr=1.00D-07 GrdErr=1.00D-07 EigMax=2.50D+02 EigMin=1.00D-04
 Number of steps in this run=     83 maximum allowed number of steps=    102.
 GradGradGradGradGradGradGradGradGradGradGradGradGradGradGradGradGradGrad

                          Input orientation:                          
 ---------------------------------------------------------------------
 Center     Atomic      Atomic             Coordinates (Angstroms)
 Number     Number       Type             X           Y           Z
 ---------------------------------------------------------------------
      1          6           0       -0.032145    1.380422    0.053030
      2          6           0       -1.237492    0.700458   -0.007861
      3          6           0       -1.237524   -0.700373   -0.064287
      4          6           0       -0.024136   -1.401453   -0.027093
      5          6           0        1.197637   -0.710150    0.017253
      6          6           0        1.209080    0.748723   -0.018502
      7          8           0        2.374472    1.399276    0.026852
      8          8           0        2.380262   -1.404438   -0.002569
      9          1           0       -2.175863   -1.249095    0.000000
     10          1           0       -2.175827    1.249217    0.000000
     11         12           0        3.633865   -0.012751   -0.040060
     12          1           0        0.001150    2.487129   -0.002033
     13          1           0        0.000938   -2.487226    0.065270
     14          1           0        5.842438    0.013866    0.419362
     15          1           0        5.644528    0.271194    1.070865
     16          1           0        5.089322    1.610025   -1.298711
     17          1           0        4.410212    1.900194   -1.186998
 ---------------------------------------------------------------------
                    Distance matrix (angstroms):
                    1          2          3          4          5
     1  C    0.000000
     2  C    1.385251   0.000000
     3  C    2.407573   1.401967   0.000000
     4  C    2.783040   2.427063   1.401858   0.000000
     5  C    2.425724   2.814303   2.436545   1.404491   0.000000
     6  C    1.394561   2.447071   2.843914   2.478740   1.459356
     7  O    2.406833   3.679108   4.178917   3.687860   2.415515
     8  O    3.684867   4.185542   3.686176   2.404525   1.371507
     9  H    3.393037   2.163645   1.088903   2.157284   3.416323
    10  H    2.148348   1.087047   2.164589   3.414170   3.901240
    11  Mg   3.922910   4.923395   4.919740   3.912753   2.534730
    12  H    1.108576   2.174043   3.420286   3.888745   3.413876
    13  H    3.867809   3.420583   2.177939   1.089983   2.142987
    14  H    6.042549   7.125962   7.132315   6.051375   4.718058
    15  H    5.872903   6.979263   7.042383   6.011407   4.674182
    16  H    5.301825   6.520903   6.847680   6.069058   4.718070
    17  H    4.641376   5.892902   6.318255   5.648867   4.311004
                    6          7          8          9         10
     6  C    0.000000
     7  O    1.335446   0.000000
     8  O    2.451127   2.803874   0.000000
     9  H    3.930580   5.264992   4.558773   0.000000
    10  H    3.421759   4.552852   5.272555   2.498312   0.000000
    11  Mg   2.541631   1.893243   1.873424   5.939957   5.945308
    12  H    2.116937   2.610922   4.561192   4.324206   2.504328
    13  H    3.455140   4.554123   2.614998   2.505133   4.324763
    14  H    4.711661   3.755025   3.765139   8.127982   8.123702
    15  H    4.592162   3.613281   3.823014   8.038442   7.953693
    16  H    4.175770   3.028522   4.255112   7.914805   7.389129
    17  H    3.597015   2.422517   4.055140   7.396173   6.723737
                   11         12         13         14         15
    11  Mg   0.000000
    12  H    4.409928   0.000000
    13  H    4.396849   4.974810   0.000000
    14  H    2.256008   6.357299   6.364273   0.000000
    15  H    2.314637   6.157044   6.361620   0.727903   0.000000
    16  H    2.517133   5.323550   6.673797   2.463064   2.777699
    17  H    2.361682   4.603093   6.345024   2.861800   3.045509
                   16         17
    16  H    0.000000
    17  H    0.746906   0.000000
 Symmetry turned off by external request.
 Stoichiometry    C6H8MgO2
 Framework group  C1[X(C6H8MgO2)]
 Deg. of freedom    45
 Full point group                 C1      NOp   1
 Rotational constants (GHZ):           3.1638344           1.0945490           0.8252700
 Counterpoise: doing full-system calculation.
 Standard basis: 6-311+G(d,p) (5D, 7F)
   254 basis functions,   402 primitive gaussians,   263 cartesian basis functions
    36 alpha electrons       36 beta electrons
       nuclear repulsion energy       485.3164764762 Hartrees.
 NAtoms=   17 NActive=   17 NUniq=   17 SFac= 1.00D+00 NAtFMM=   60 NAOKFM=F Big=F
 Integral buffers will be    131072 words long.
 Raffenetti 1 integral format.
 Two-electron integral symmetry is turned off.
 One-electron integrals computed using PRISM.
 NBasis=   254 RedAO= T EigKep=  1.92D-06  NBF=   254
 NBsUse=   254 1.00D-06 EigRej= -1.00D+00 NBFU=   254
 ExpMin= 1.46D-02 ExpMax= 4.39D+04 ExpMxC= 1.51D+03 IAcc=3 IRadAn=         5 AccDes= 0.00D+00
 Harris functional with IExCor=  205 and IRadAn=       5 diagonalized for initial guess.
 HarFok:  IExCor=  205 AccDes= 0.00D+00 IRadAn=         5 IDoV= 1 UseB2=F ITyADJ=14
 ICtDFT=  3500011 ScaDFX=  1.000000  1.000000  1.000000  1.000000
 FoFCou: FMM=F IPFlag=           0 FMFlag=      100000 FMFlg1=           0
         NFxFlg=           0 DoJE=T BraDBF=F KetDBF=T FulRan=T
         wScrn=  0.000000 ICntrl=       500 IOpCl=  0 I1Cent=   200000004 NGrid=           0
         NMat0=    1 NMatS0=      1 NMatT0=    0 NMatD0=    1 NMtDS0=    0 NMtDT0=    0
 Symmetry not used in FoFCou.
 Requested convergence on RMS density matrix=1.00D-08 within 128 cycles.
 Requested convergence on MAX density matrix=1.00D-06.
 Requested convergence on             energy=1.00D-06.
 No special actions if energy rises.
 SCF Done:  E(RHF) =  -581.255293784     A.U. after   16 cycles
            NFock= 16  Conv=0.65D-08     -V/T= 2.0012
 ExpMin= 1.46D-02 ExpMax= 4.39D+04 ExpMxC= 1.51D+03 IAcc=3 IRadAn=         5 AccDes= 0.00D+00
 HarFok:  IExCor=  205 AccDes= 0.00D+00 IRadAn=         5 IDoV=-2 UseB2=F ITyADJ=14
 ICtDFT= 12500011 ScaDFX=  1.000000  1.000000  1.000000  1.000000
 Range of M.O.s used for correlation:    14   254
 NBasis=   254 NAE=    36 NBE=    36 NFC=    13 NFV=     0
 NROrb=    241 NOA=    23 NOB=    23 NVA=   218 NVB=   218

 **** Warning!!: The largest alpha MO coefficient is  0.22430609D+03

 Fully direct method using O(ONN) memory.
 JobTyp=1 Pass  1:  I=  14 to  36 NPSUse= 10 ParTrn=T ParDer=T DoDerP=T.
 Spin components of T(2) and E(2):
     alpha-alpha T2 =       0.6113270257D-01 E2=     -0.1721955713D+00
     alpha-beta  T2 =       0.3233604279D+00 E2=     -0.9638185772D+00
     beta-beta   T2 =       0.6113270257D-01 E2=     -0.1721955713D+00
 ANorm=    0.1202341812D+01
 E2 =    -0.1308209720D+01 EUMP2 =    -0.58256350350418D+03
          IDoAtm=00000000000001111
          Differentiating once with respect to electric field.
                with respect to dipole field.
          Differentiating once with respect to nuclear coordinates.
 Keep R1 ints in memory in canonical form, NReq=533613751.
          There are     1 degrees of freedom in the 1st order CPHF.  IDoFFX=0 NUNeed=     1.
 LinEq1:  Iter=  0 NonCon=     1 RMS=3.88D-03 Max=7.22D-02 NDo=     1
 AX will form     1 AO Fock derivatives at one time.
 LinEq1:  Iter=  1 NonCon=     1 RMS=9.59D-04 Max=1.54D-02 NDo=     1
 LinEq1:  Iter=  2 NonCon=     1 RMS=4.00D-04 Max=6.68D-03 NDo=     1
 LinEq1:  Iter=  3 NonCon=     1 RMS=1.31D-04 Max=1.59D-03 NDo=     1
 LinEq1:  Iter=  4 NonCon=     1 RMS=5.30D-05 Max=1.26D-03 NDo=     1
 LinEq1:  Iter=  5 NonCon=     1 RMS=1.49D-05 Max=4.23D-04 NDo=     1
 LinEq1:  Iter=  6 NonCon=     1 RMS=5.22D-06 Max=1.57D-04 NDo=     1
 LinEq1:  Iter=  7 NonCon=     1 RMS=2.53D-06 Max=7.85D-05 NDo=     1
 LinEq1:  Iter=  8 NonCon=     1 RMS=7.29D-07 Max=1.54D-05 NDo=     1
 LinEq1:  Iter=  9 NonCon=     1 RMS=2.00D-07 Max=2.36D-06 NDo=     1
 LinEq1:  Iter= 10 NonCon=     1 RMS=8.82D-08 Max=1.50D-06 NDo=     1
 LinEq1:  Iter= 11 NonCon=     1 RMS=2.81D-08 Max=5.36D-07 NDo=     1
 LinEq1:  Iter= 12 NonCon=     1 RMS=1.14D-08 Max=1.91D-07 NDo=     1
 LinEq1:  Iter= 13 NonCon=     1 RMS=3.87D-09 Max=7.91D-08 NDo=     1
 LinEq1:  Iter= 14 NonCon=     1 RMS=9.82D-10 Max=2.31D-08 NDo=     1
 LinEq1:  Iter= 15 NonCon=     1 RMS=3.18D-10 Max=6.11D-09 NDo=     1
 LinEq1:  Iter= 16 NonCon=     1 RMS=1.18D-10 Max=1.91D-09 NDo=     1
 LinEq1:  Iter= 17 NonCon=     1 RMS=4.32D-11 Max=1.38D-09 NDo=     1
 LinEq1:  Iter= 18 NonCon=     0 RMS=1.36D-11 Max=1.58D-10 NDo=     1
 Linear equations converged to 1.000D-10 1.000D-09 after    18 iterations.
 End of Minotr F.D. properties file   721 does not exist.
 End of Minotr F.D. properties file   722 does not exist.
 End of Minotr F.D. properties file   788 does not exist.

 **********************************************************************

            Population analysis using the SCF Density.

 **********************************************************************

 Alpha  occ. eigenvalues --  -49.08914 -20.50157 -20.49908 -11.25380 -11.25183
 Alpha  occ. eigenvalues --  -11.19328 -11.19211 -11.19042 -11.18842  -3.82039
 Alpha  occ. eigenvalues --   -2.34350  -2.34336  -2.34176  -1.31907  -1.27784
 Alpha  occ. eigenvalues --   -1.08661  -0.96187  -0.93255  -0.78102  -0.76371
 Alpha  occ. eigenvalues --   -0.75260  -0.68070  -0.64528  -0.62648  -0.60480
 Alpha  occ. eigenvalues --   -0.56101  -0.54755  -0.54067  -0.49555  -0.48789
 Alpha  occ. eigenvalues --   -0.47677  -0.44633  -0.41816  -0.40701  -0.28408
 Alpha  occ. eigenvalues --   -0.24225
 Alpha virt. eigenvalues --   -0.00157   0.00997   0.02262   0.03400   0.04460
 Alpha virt. eigenvalues --    0.06300   0.08939   0.09860   0.10426   0.11189
 Alpha virt. eigenvalues --    0.12392   0.13290   0.13760   0.14862   0.15286
 Alpha virt. eigenvalues --    0.16227   0.16318   0.16799   0.17833   0.18371
 Alpha virt. eigenvalues --    0.18854   0.19882   0.20400   0.20806   0.21719
 Alpha virt. eigenvalues --    0.22243   0.23336   0.24390   0.24985   0.25427
 Alpha virt. eigenvalues --    0.25610   0.26727   0.28043   0.28757   0.30100
 Alpha virt. eigenvalues --    0.31291   0.31502   0.32049   0.32525   0.33416
 Alpha virt. eigenvalues --    0.35736   0.36481   0.37869   0.38712   0.38842
 Alpha virt. eigenvalues --    0.39342   0.40172   0.41233   0.42563   0.44624
 Alpha virt. eigenvalues --    0.45135   0.45778   0.47358   0.48014   0.50350
 Alpha virt. eigenvalues --    0.51926   0.53749   0.54443   0.55556   0.55688
 Alpha virt. eigenvalues --    0.57625   0.58646   0.59408   0.60978   0.65200
 Alpha virt. eigenvalues --    0.68371   0.70496   0.73138   0.74440   0.75680
 Alpha virt. eigenvalues --    0.75868   0.76617   0.77473   0.79925   0.80545
 Alpha virt. eigenvalues --    0.82388   0.82840   0.83290   0.85892   0.87049
 Alpha virt. eigenvalues --    0.88222   0.89897   0.92796   0.94034   0.95126
 Alpha virt. eigenvalues --    0.95822   0.98565   1.01556   1.02168   1.04249
 Alpha virt. eigenvalues --    1.04853   1.09387   1.10664   1.12599   1.14099
 Alpha virt. eigenvalues --    1.16256   1.18183   1.20828   1.21306   1.26636
 Alpha virt. eigenvalues --    1.29141   1.32350   1.33896   1.34994   1.37208
 Alpha virt. eigenvalues --    1.39773   1.41865   1.42898   1.44626   1.49950
 Alpha virt. eigenvalues --    1.51986   1.54317   1.56640   1.58075   1.60204
 Alpha virt. eigenvalues --    1.64002   1.68752   1.70979   1.76587   1.79370
 Alpha virt. eigenvalues --    1.83324   1.84087   1.84951   1.87047   1.89979
 Alpha virt. eigenvalues --    1.93136   1.95685   1.97194   1.98896   2.00566
 Alpha virt. eigenvalues --    2.03283   2.04745   2.05625   2.05990   2.10299
 Alpha virt. eigenvalues --    2.10983   2.12449   2.15917   2.16420   2.18817
 Alpha virt. eigenvalues --    2.21606   2.22456   2.25288   2.26315   2.29903
 Alpha virt. eigenvalues --    2.31513   2.32532   2.35915   2.37860   2.39814
 Alpha virt. eigenvalues --    2.50809   2.55086   2.58148   2.65687   2.67019
 Alpha virt. eigenvalues --    2.76988   2.79154   2.80921   2.83894   2.90076
 Alpha virt. eigenvalues --    2.90411   3.03146   3.03976   3.06790   3.07875
 Alpha virt. eigenvalues --    3.08434   3.11279   3.16515   3.19595   3.20262
 Alpha virt. eigenvalues --    3.23235   3.30728   3.31506   3.34948   3.36266
 Alpha virt. eigenvalues --    3.42605   3.45472   3.50835   3.51985   3.58415
 Alpha virt. eigenvalues --    3.59512   3.62286   3.63335   3.63782   3.69170
 Alpha virt. eigenvalues --    3.71794   3.82198   3.85660   3.88015   3.92914
 Alpha virt. eigenvalues --    3.97240   3.98670   4.07682   4.16965   4.47148
 Alpha virt. eigenvalues --    4.48906   4.58787   4.67411   4.69865   5.26933
 Alpha virt. eigenvalues --    5.64893   5.69508   5.78107   5.89729   6.22875
 Alpha virt. eigenvalues --    6.37496   6.41240   6.64160   6.71113  24.78508
 Alpha virt. eigenvalues --   25.03277  25.13608  25.21174  25.28897  25.37327
 Alpha virt. eigenvalues --   51.71119  51.76315 105.77667
          Condensed to atoms (all electrons):
               1          2          3          4          5          6
     1  C   17.945668  -1.658146   1.280593  -5.048084  -4.804947  -1.083956
     2  C   -1.658146   6.386448   0.047711   1.052836  -1.051447   1.082433
     3  C    1.280593   0.047711   5.954594  -1.257990   0.524502  -0.850088
     4  C   -5.048084   1.052836  -1.257990  17.894196  -0.066374  -5.632365
     5  C   -4.804947  -1.051447   0.524502  -0.066374  16.040373  -5.548194
     6  C   -1.083956   1.082433  -0.850088  -5.632365  -5.548194  17.220069
     7  O   -0.709161   0.001674   0.000305   0.099581   0.245983   0.301139
     8  O    0.140770  -0.016695   0.047163  -0.839082   0.406918   0.244589
     9  H   -0.035435   0.017860   0.388692  -0.031792   0.000777   0.024271
    10  H   -0.028954   0.393132   0.011278  -0.032050   0.022295   0.000620
    11  Mg   0.024978   0.013177  -0.027133   0.065970  -0.136969  -0.099658
    12  H    0.347017  -0.013687   0.002237  -0.014107   0.016654   0.026774
    13  H   -0.006158  -0.004865  -0.001118   0.323170   0.045790   0.013404
    14  H   -0.001210   0.000140   0.000069   0.001339   0.003981  -0.005043
    15  H   -0.002256   0.000036   0.000124   0.002927   0.011225  -0.011555
    16  H    0.004806  -0.001144   0.000631   0.000208   0.007293  -0.001275
    17  H    0.005513  -0.003896   0.001374   0.000738   0.023712  -0.012210
               7          8          9         10         11         12
     1  C   -0.709161   0.140770  -0.035435  -0.028954   0.024978   0.347017
     2  C    0.001674  -0.016695   0.017860   0.393132   0.013177  -0.013687
     3  C    0.000305   0.047163   0.388692   0.011278  -0.027133   0.002237
     4  C    0.099581  -0.839082  -0.031792  -0.032050   0.065970  -0.014107
     5  C    0.245983   0.406918   0.000777   0.022295  -0.136969   0.016654
     6  C    0.301139   0.244589   0.024271   0.000620  -0.099658   0.026774
     7  O    8.370428   0.010320   0.000121  -0.000280   0.212265  -0.004222
     8  O    0.010320   8.306258  -0.000402   0.000071   0.200828  -0.000124
     9  H    0.000121  -0.000402   0.525541  -0.004977   0.000510  -0.000186
    10  H   -0.000280   0.000071  -0.004977   0.524292   0.000458  -0.005793
    11  Mg   0.212265   0.200828   0.000510   0.000458  10.602118   0.001720
    12  H   -0.004222  -0.000124  -0.000186  -0.005793   0.001720   0.523847
    13  H   -0.000135  -0.004545  -0.004730  -0.000147   0.001742   0.000019
    14  H    0.002715   0.001250  -0.000000   0.000000   0.032782   0.000000
    15  H    0.002989   0.000218  -0.000000  -0.000000   0.026612  -0.000000
    16  H   -0.023418   0.002139   0.000000  -0.000000   0.027698  -0.000000
    17  H   -0.020076   0.002006   0.000000  -0.000000   0.029867  -0.000003
              13         14         15         16         17
     1  C   -0.006158  -0.001210  -0.002256   0.004806   0.005513
     2  C   -0.004865   0.000140   0.000036  -0.001144  -0.003896
     3  C   -0.001118   0.000069   0.000124   0.000631   0.001374
     4  C    0.323170   0.001339   0.002927   0.000208   0.000738
     5  C    0.045790   0.003981   0.011225   0.007293   0.023712
     6  C    0.013404  -0.005043  -0.011555  -0.001275  -0.012210
     7  O   -0.000135   0.002715   0.002989  -0.023418  -0.020076
     8  O   -0.004545   0.001250   0.000218   0.002139   0.002006
     9  H   -0.004730  -0.000000  -0.000000   0.000000   0.000000
    10  H   -0.000147   0.000000  -0.000000  -0.000000  -0.000000
    11  Mg   0.001742   0.032782   0.026612   0.027698   0.029867
    12  H    0.000019   0.000000  -0.000000  -0.000000  -0.000003
    13  H    0.512267   0.000001   0.000000   0.000000   0.000001
    14  H    0.000001   0.561564   0.384793  -0.003313  -0.001643
    15  H    0.000000   0.384793   0.515163  -0.002208  -0.001252
    16  H    0.000000  -0.003313  -0.002208   0.633560   0.391923
    17  H    0.000001  -0.001643  -0.001252   0.391923   0.489696
 Mulliken charges:
               1
     1  C   -0.371038
     2  C   -0.245566
     3  C   -0.122945
     4  C   -0.519121
     5  C    0.258428
     6  C    0.331044
     7  O   -0.490228
     8  O   -0.501682
     9  H    0.119750
    10  H    0.120054
    11  Mg   1.023035
    12  H    0.119855
    13  H    0.125304
    14  H    0.022573
    15  H    0.073185
    16  H   -0.036899
    17  H    0.094250
 Sum of Mulliken charges =  -0.00000
 Mulliken charges with hydrogens summed into heavy atoms:
               1
     1  C   -0.251183
     2  C   -0.125512
     3  C   -0.003194
     4  C   -0.393818
     5  C    0.258428
     6  C    0.331044
     7  O   -0.490228
     8  O   -0.501682
    11  Mg   1.176144
         Mulliken charges condensed to fragments:
      1     -0.153109
      2      0.095758
      3      0.057351
 Electronic spatial extent (au):  <R**2>=           1870.1987
 Charge=             -0.0000 electrons
 Dipole moment (field-independent basis, Debye):
    X=             10.1997    Y=              0.5162    Z=             -0.1479  Tot=             10.2138
 Quadrupole moment (field-independent basis, Debye-Ang):
   XX=              6.2083   YY=            -66.7418   ZZ=            -59.7082
   XY=              2.2258   XZ=             -0.5471   YZ=             -0.9717
 Traceless Quadrupole moment (field-independent basis, Debye-Ang):
   XX=             46.2889   YY=            -26.6613   ZZ=            -19.6276
   XY=              2.2258   XZ=             -0.5471   YZ=             -0.9717
 Octapole moment (field-independent basis, Debye-Ang**2):
  XXX=            129.4890  YYY=             -7.8415  ZZZ=              4.9960  XYY=            -94.9818
  XXY=              5.7516  XXZ=              3.3829  XZZ=            -52.6115  YZZ=             -2.0517
  YYZ=             -0.0566  XYZ=             -1.5316
 Hexadecapole moment (field-independent basis, Debye-Ang**3):
 XXXX=           -117.6850 YYYY=           -503.1500 ZZZZ=            -93.3039 XXXY=             -9.6881
 XXXZ=             33.2898 YYYX=            -36.3089 YYYZ=              2.1073 ZZZX=             15.4827
 ZZZY=              7.7852 XXYY=           -435.2465 XXZZ=           -266.1310 YYZZ=           -105.8304
 XXYZ=             -1.4298 YYXZ=             -3.8538 ZZXY=            -10.2992
 N-N= 4.853164764762D+02 E-N=-2.346596349150D+03  KE= 5.805497476110D+02
 Calling FoFJK, ICntrl=  10002127 FMM=F ISym2X=0 I1Cent= 0 IOpClX= 0 NMat=1 NMatS=1 NMatT=0.
 Cartesian Forces:  Max     0.012080885 RMS     0.002763089
 CPIOFr:  IOpCl= 0 IRwI=-1 IRwCP=  731 ICalc= -1 LCPTot=      101349 Len1MO=      263944 IndFrg=      101349
 CPIOFr:  IOpCl= 0 IRwI=-1 IRwCP=  731 ICalc=  0 LCPTot=      101349 Len1MO=      263944 IndFrg=      365293
 Counterpoise: doing calculation for fragment   1 using the basis set of the full-system, NewBq=T
 Basis read from rwf:  (5D, 7F)
   254 basis functions,   402 primitive gaussians,   263 cartesian basis functions
    34 alpha electrons       34 beta electrons
       nuclear repulsion energy       447.3227354312 Hartrees.
 NAtoms=   17 NActive=   17 NUniq=   17 SFac= 1.00D+00 NAtFMM=   60 NAOKFM=F Big=F
 Integral buffers will be    131072 words long.
 Raffenetti 1 integral format.
 Two-electron integral symmetry is turned off.
 One-electron integrals computed using PRISM.
 NBasis=   254 RedAO= T EigKep=  1.92D-06  NBF=   254
 NBsUse=   254 1.00D-06 EigRej= -1.00D+00 NBFU=   254
 ExpMin= 1.46D-02 ExpMax= 4.39D+04 ExpMxC= 1.51D+03 IAcc=3 IRadAn=         5 AccDes= 0.00D+00
 Harris functional with IExCor=  205 and IRadAn=       5 diagonalized for initial guess.
 HarFok:  IExCor=  205 AccDes= 0.00D+00 IRadAn=         5 IDoV= 1 UseB2=F ITyADJ=14
 ICtDFT=  3500011 ScaDFX=  1.000000  1.000000  1.000000  1.000000
 FoFCou: FMM=F IPFlag=           0 FMFlag=      100000 FMFlg1=           0
         NFxFlg=           0 DoJE=T BraDBF=F KetDBF=T FulRan=T
         wScrn=  0.000000 ICntrl=       500 IOpCl=  0 I1Cent=   200000004 NGrid=           0
         NMat0=    1 NMatS0=      1 NMatT0=    0 NMatD0=    1 NMtDS0=    0 NMtDT0=    0
 Symmetry not used in FoFCou.
 Requested convergence on RMS density matrix=1.00D-08 within 128 cycles.
 Requested convergence on MAX density matrix=1.00D-06.
 Requested convergence on             energy=1.00D-06.
 No special actions if energy rises.
 SCF Done:  E(RHF) =  -578.979283483     A.U. after   18 cycles
            NFock= 18  Conv=0.44D-08     -V/T= 2.0013
 ExpMin= 1.46D-02 ExpMax= 4.39D+04 ExpMxC= 1.51D+03 IAcc=3 IRadAn=         5 AccDes= 0.00D+00
 HarFok:  IExCor=  205 AccDes= 0.00D+00 IRadAn=         5 IDoV=-2 UseB2=F ITyADJ=14
 ICtDFT= 12500011 ScaDFX=  1.000000  1.000000  1.000000  1.000000
 Range of M.O.s used for correlation:    14   254
 NBasis=   254 NAE=    34 NBE=    34 NFC=    13 NFV=     0
 NROrb=    241 NOA=    21 NOB=    21 NVA=   220 NVB=   220

 **** Warning!!: The largest alpha MO coefficient is  0.22980619D+03

 Fully direct method using O(ONN) memory.
 JobTyp=1 Pass  1:  I=  14 to  34 NPSUse= 10 ParTrn=T ParDer=T DoDerP=T.
 Spin components of T(2) and E(2):
     alpha-alpha T2 =       0.6114812297D-01 E2=     -0.1718610526D+00
     alpha-beta  T2 =       0.3056200705D+00 E2=     -0.9077515017D+00
     beta-beta   T2 =       0.6114812297D-01 E2=     -0.1718610526D+00
 ANorm=    0.1194954525D+01
 E2 =    -0.1251473607D+01 EUMP2 =    -0.58023075709030D+03
          IDoAtm=00000000000001111
          Differentiating once with respect to electric field.
                with respect to dipole field.
          Differentiating once with respect to nuclear coordinates.
 Keep R1 ints in memory in canonical form, NReq=533613751.
          There are     1 degrees of freedom in the 1st order CPHF.  IDoFFX=0 NUNeed=     1.
 LinEq1:  Iter=  0 NonCon=     1 RMS=4.10D-03 Max=8.64D-02 NDo=     1
 AX will form     1 AO Fock derivatives at one time.
 LinEq1:  Iter=  1 NonCon=     1 RMS=1.01D-03 Max=1.87D-02 NDo=     1
 LinEq1:  Iter=  2 NonCon=     1 RMS=4.28D-04 Max=9.57D-03 NDo=     1
 LinEq1:  Iter=  3 NonCon=     1 RMS=1.35D-04 Max=1.92D-03 NDo=     1
 LinEq1:  Iter=  4 NonCon=     1 RMS=5.57D-05 Max=1.25D-03 NDo=     1
 LinEq1:  Iter=  5 NonCon=     1 RMS=1.75D-05 Max=6.37D-04 NDo=     1
 LinEq1:  Iter=  6 NonCon=     1 RMS=6.97D-06 Max=2.57D-04 NDo=     1
 LinEq1:  Iter=  7 NonCon=     1 RMS=3.33D-06 Max=1.02D-04 NDo=     1
 LinEq1:  Iter=  8 NonCon=     1 RMS=1.01D-06 Max=3.19D-05 NDo=     1
 LinEq1:  Iter=  9 NonCon=     1 RMS=3.06D-07 Max=7.87D-06 NDo=     1
 LinEq1:  Iter= 10 NonCon=     1 RMS=1.38D-07 Max=2.42D-06 NDo=     1
 LinEq1:  Iter= 11 NonCon=     1 RMS=5.19D-08 Max=1.22D-06 NDo=     1
 LinEq1:  Iter= 12 NonCon=     1 RMS=2.07D-08 Max=3.17D-07 NDo=     1
 LinEq1:  Iter= 13 NonCon=     1 RMS=7.48D-09 Max=1.58D-07 NDo=     1
 LinEq1:  Iter= 14 NonCon=     1 RMS=2.08D-09 Max=3.56D-08 NDo=     1
 LinEq1:  Iter= 15 NonCon=     1 RMS=5.19D-10 Max=7.95D-09 NDo=     1
 LinEq1:  Iter= 16 NonCon=     1 RMS=1.94D-10 Max=3.11D-09 NDo=     1
 LinEq1:  Iter= 17 NonCon=     1 RMS=6.06D-11 Max=1.81D-09 NDo=     1
 LinEq1:  Iter= 18 NonCon=     0 RMS=2.37D-11 Max=3.61D-10 NDo=     1
 Linear equations converged to 1.000D-10 1.000D-09 after    18 iterations.
 End of Minotr F.D. properties file   721 does not exist.
 End of Minotr F.D. properties file   722 does not exist.
 End of Minotr F.D. properties file   788 does not exist.

 **********************************************************************

            Population analysis using the SCF Density.

 **********************************************************************

 Alpha  occ. eigenvalues --  -49.10927 -20.51063 -20.50760 -11.25900 -11.25695
 Alpha  occ. eigenvalues --  -11.19733 -11.19618 -11.19491 -11.19279  -3.83978
 Alpha  occ. eigenvalues --   -2.36251  -2.36239  -2.36072  -1.32558  -1.28492
 Alpha  occ. eigenvalues --   -1.09094  -0.96615  -0.93704  -0.78559  -0.76761
 Alpha  occ. eigenvalues --   -0.65349  -0.63158  -0.61165  -0.56735  -0.55329
 Alpha  occ. eigenvalues --   -0.54569  -0.50066  -0.49273  -0.48341  -0.45176
 Alpha  occ. eigenvalues --   -0.42276  -0.41264  -0.28829  -0.24737
 Alpha virt. eigenvalues --   -0.06055   0.01443   0.01753   0.02280   0.04352
 Alpha virt. eigenvalues --    0.06110   0.07173   0.08613   0.10431   0.11003
 Alpha virt. eigenvalues --    0.12434   0.13647   0.14634   0.15392   0.15487
 Alpha virt. eigenvalues --    0.15673   0.16182   0.16807   0.17128   0.17854
 Alpha virt. eigenvalues --    0.18349   0.18894   0.20712   0.20894   0.21346
 Alpha virt. eigenvalues --    0.22624   0.23545   0.23605   0.24363   0.25102
 Alpha virt. eigenvalues --    0.25675   0.25967   0.26415   0.27327   0.28985
 Alpha virt. eigenvalues --    0.29208   0.30129   0.31201   0.31875   0.32437
 Alpha virt. eigenvalues --    0.33466   0.34739   0.36603   0.37719   0.38563
 Alpha virt. eigenvalues --    0.38780   0.40199   0.40906   0.42472   0.44178
 Alpha virt. eigenvalues --    0.44738   0.45775   0.47353   0.47414   0.49579
 Alpha virt. eigenvalues --    0.50601   0.53063   0.53580   0.54972   0.55645
 Alpha virt. eigenvalues --    0.57674   0.58476   0.59147   0.64580   0.65438
 Alpha virt. eigenvalues --    0.70366   0.73363   0.73740   0.74876   0.75413
 Alpha virt. eigenvalues --    0.76562   0.77008   0.78250   0.79841   0.80053
 Alpha virt. eigenvalues --    0.82439   0.82999   0.83625   0.84934   0.86733
 Alpha virt. eigenvalues --    0.87956   0.90120   0.91758   0.93292   0.93988
 Alpha virt. eigenvalues --    0.94814   0.95749   0.98326   1.01202   1.01419
 Alpha virt. eigenvalues --    1.01956   1.04247   1.04651   1.09107   1.10504
 Alpha virt. eigenvalues --    1.12440   1.14069   1.15927   1.18174   1.20546
 Alpha virt. eigenvalues --    1.21815   1.26461   1.32954   1.34218   1.36827
 Alpha virt. eigenvalues --    1.40093   1.41585   1.42547   1.46530   1.48940
 Alpha virt. eigenvalues --    1.52063   1.55271   1.56315   1.59783   1.64112
 Alpha virt. eigenvalues --    1.65593   1.69649   1.73412   1.76833   1.82933
 Alpha virt. eigenvalues --    1.84176   1.86637   1.89090   1.89906   1.91033
 Alpha virt. eigenvalues --    1.93293   1.95541   1.97089   2.00536   2.03734
 Alpha virt. eigenvalues --    2.05230   2.10482   2.11253   2.15009   2.16270
 Alpha virt. eigenvalues --    2.21077   2.21219   2.24699   2.25320   2.26534
 Alpha virt. eigenvalues --    2.27413   2.30052   2.31376   2.32780   2.33486
 Alpha virt. eigenvalues --    2.34956   2.35429   2.37817   2.38742   2.43202
 Alpha virt. eigenvalues --    2.50351   2.54673   2.57754   2.65353   2.66639
 Alpha virt. eigenvalues --    2.69206   2.78803   2.80428   2.84779   2.89715
 Alpha virt. eigenvalues --    2.89941   3.02792   3.03595   3.06368   3.07476
 Alpha virt. eigenvalues --    3.08048   3.10866   3.16094   3.18920   3.19722
 Alpha virt. eigenvalues --    3.22789   3.29969   3.31068   3.34078   3.35752
 Alpha virt. eigenvalues --    3.41294   3.45148   3.50256   3.51529   3.58808
 Alpha virt. eigenvalues --    3.61390   3.62616   3.68198   3.70811   3.81484
 Alpha virt. eigenvalues --    3.85205   3.87224   3.87517   3.96626   3.98148
 Alpha virt. eigenvalues --    4.04578   4.07307   4.16555   4.18287   4.46757
 Alpha virt. eigenvalues --    4.48451   4.58350   4.66859   4.69020   4.97479
 Alpha virt. eigenvalues --    5.04815   5.26492   5.64245   5.68829   5.77387
 Alpha virt. eigenvalues --    5.88978   6.22184   6.36816   6.39504   6.62495
 Alpha virt. eigenvalues --    6.69499  24.78047  25.02783  25.13147  25.20730
 Alpha virt. eigenvalues --   25.28457  25.36904  51.70250  51.75436 105.75674
          Condensed to atoms (all electrons):
               1          2          3          4          5          6
     1  C   17.100163  -1.415819   1.071440  -4.815409  -5.075523  -0.245149
     2  C   -1.415819   6.333765   0.106151   0.988462  -0.998830   0.849583
     3  C    1.071440   0.106151   5.816386  -1.109787   0.457158  -0.648513
     4  C   -4.815409   0.988462  -1.109787  17.702174  -0.014610  -5.797670
     5  C   -5.075523  -0.998830   0.457158  -0.014610  16.156780  -5.465856
     6  C   -0.245149   0.849583  -0.648513  -5.797670  -5.465856  16.521747
     7  O   -0.703116   0.005579  -0.002779   0.096444   0.254016   0.307675
     8  O    0.134969  -0.016459   0.048332  -0.850037   0.402958   0.260053
     9  H   -0.036125   0.018723   0.388228  -0.030957   0.000116   0.024775
    10  H   -0.022945   0.390227   0.012355  -0.034363   0.024124  -0.002591
    11  Mg   0.049004   0.003550  -0.020399   0.066622  -0.113843  -0.139830
    12  H    0.351625  -0.016298   0.002815  -0.014793   0.018683   0.022637
    13  H   -0.004674  -0.005747   0.000048   0.319517   0.048352   0.012525
    14  H    0.000268   0.000044  -0.000015  -0.000633  -0.002979   0.002460
    15  H   -0.000803  -0.000109   0.000064   0.001288   0.005706  -0.005525
    16  H    0.000103   0.000203  -0.000055   0.000190  -0.000959   0.000053
    17  H   -0.001765  -0.000947   0.000193   0.000558   0.007336  -0.004331
               7          8          9         10         11         12
     1  C   -0.703116   0.134969  -0.036125  -0.022945   0.049004   0.351625
     2  C    0.005579  -0.016459   0.018723   0.390227   0.003550  -0.016298
     3  C   -0.002779   0.048332   0.388228   0.012355  -0.020399   0.002815
     4  C    0.096444  -0.850037  -0.030957  -0.034363   0.066622  -0.014793
     5  C    0.254016   0.402958   0.000116   0.024124  -0.113843   0.018683
     6  C    0.307675   0.260053   0.024775  -0.002591  -0.139830   0.022637
     7  O    8.288425   0.009890   0.000118  -0.000236   0.219478  -0.003780
     8  O    0.009890   8.294394  -0.000406   0.000065   0.203116  -0.000081
     9  H    0.000118  -0.000406   0.523452  -0.004925   0.000494  -0.000183
    10  H   -0.000236   0.000065  -0.004925   0.521823   0.000428  -0.005743
    11  Mg   0.219478   0.203116   0.000494   0.000428  10.604295   0.001804
    12  H   -0.003780  -0.000081  -0.000183  -0.005743   0.001804   0.520349
    13  H   -0.000103  -0.004339  -0.004695  -0.000143   0.001922   0.000019
    14  H   -0.000050   0.000331   0.000000   0.000000   0.000160   0.000000
    15  H    0.000084  -0.000648  -0.000000  -0.000000  -0.001591  -0.000000
    16  H   -0.001452   0.000058  -0.000000  -0.000000  -0.001828   0.000003
    17  H    0.006255  -0.000228   0.000000   0.000000   0.003574  -0.000013
              13         14         15         16         17
     1  C   -0.004674   0.000268  -0.000803   0.000103  -0.001765
     2  C   -0.005747   0.000044  -0.000109   0.000203  -0.000947
     3  C    0.000048  -0.000015   0.000064  -0.000055   0.000193
     4  C    0.319517  -0.000633   0.001288   0.000190   0.000558
     5  C    0.048352  -0.002979   0.005706  -0.000959   0.007336
     6  C    0.012525   0.002460  -0.005525   0.000053  -0.004331
     7  O   -0.000103  -0.000050   0.000084  -0.001452   0.006255
     8  O   -0.004339   0.000331  -0.000648   0.000058  -0.000228
     9  H   -0.004695   0.000000  -0.000000  -0.000000   0.000000
    10  H   -0.000143   0.000000  -0.000000  -0.000000   0.000000
    11  Mg   0.001922   0.000160  -0.001591  -0.001828   0.003574
    12  H    0.000019   0.000000  -0.000000   0.000003  -0.000013
    13  H    0.510587   0.000000  -0.000000  -0.000000  -0.000000
    14  H    0.000000   0.000377  -0.000218   0.000021  -0.000046
    15  H   -0.000000  -0.000218   0.000398   0.000044   0.000001
    16  H   -0.000000   0.000021   0.000044   0.000888  -0.001004
    17  H   -0.000000  -0.000046   0.000001  -0.001004   0.001755
 Mulliken charges:
               1
     1  C   -0.386244
     2  C   -0.242078
     3  C   -0.121622
     4  C   -0.506997
     5  C    0.297372
     6  C    0.307956
     7  O   -0.476449
     8  O   -0.481967
     9  H    0.121387
    10  H    0.121925
    11  Mg   1.123044
    12  H    0.122956
    13  H    0.126731
    14  H    0.000279
    15  H    0.001309
    16  H    0.003734
    17  H   -0.011337
 Sum of Mulliken charges =  -0.00000
 Mulliken charges with hydrogens summed into heavy atoms:
               1
     1  C   -0.263288
     2  C   -0.120152
     3  C   -0.000235
     4  C   -0.380267
     5  C    0.297372
     6  C    0.307956
     7  O   -0.476449
     8  O   -0.481967
    11  Mg   1.117030
         Mulliken charges condensed to fragments:
      1      0.006014
      2      0.001588
      3     -0.007602
 Electronic spatial extent (au):  <R**2>=           1432.3398
 Charge=             -0.0000 electrons
 Dipole moment (field-independent basis, Debye):
    X=              9.3539    Y=              0.0462    Z=             -0.2302  Tot=              9.3568
 Quadrupole moment (field-independent basis, Debye-Ang):
   XX=              3.3868   YY=            -63.9296   ZZ=            -56.9507
   XY=              0.1453   XZ=             -1.4238   YZ=             -0.5274
 Traceless Quadrupole moment (field-independent basis, Debye-Ang):
   XX=             42.5513   YY=            -24.7651   ZZ=            -17.7862
   XY=              0.1453   XZ=             -1.4238   YZ=             -0.5274
 Octapole moment (field-independent basis, Debye-Ang**2):
  XXX=            135.9924  YYY=             -0.3654  ZZZ=              0.9563  XYY=            -80.4925
  XXY=              0.2480  XXZ=             -4.0746  XZZ=            -38.9105  YZZ=              0.1713
  YYZ=              0.7008  XYZ=             -0.1773
 Hexadecapole moment (field-independent basis, Debye-Ang**3):
 XXXX=            129.2583 YYYY=           -470.2416 ZZZZ=            -68.2689 XXXY=             -1.0591
 XXXZ=            -18.3356 YYYX=              1.6458 YYYZ=             -4.9811 ZZZX=             -1.4199
 ZZZY=             -3.1193 XXYY=           -345.4757 XXZZ=           -189.8243 YYZZ=            -97.0144
 XXYZ=             -1.5779 YYXZ=             -0.6574 ZZXY=              0.4006
 N-N= 4.473227354312D+02 E-N=-2.266103603121D+03  KE= 5.782406204284D+02
 Calling FoFJK, ICntrl=  10002127 FMM=F ISym2X=0 I1Cent= 0 IOpClX= 0 NMat=1 NMatS=1 NMatT=0.
 Cartesian Forces:  Max     0.000264594 RMS     0.000071713
 CPIOFr:  IOpCl= 0 IRwI=-1 IRwCP=  731 ICalc=  1 LCPTot=      101349 Len1MO=      263944 IndFrg=      629237
 Counterpoise: doing calculation for fragment   2 using the basis set of the full-system, NewBq=T
 Basis read from rwf:  (5D, 7F)
   254 basis functions,   402 primitive gaussians,   263 cartesian basis functions
     1 alpha electrons        1 beta electrons
       nuclear repulsion energy         0.7269890163 Hartrees.
 NAtoms=   17 NActive=   17 NUniq=   17 SFac= 1.00D+00 NAtFMM=   60 NAOKFM=F Big=F
 Integral buffers will be    131072 words long.
 Raffenetti 1 integral format.
 Two-electron integral symmetry is turned off.
 One-electron integrals computed using PRISM.
 NBasis=   254 RedAO= T EigKep=  1.92D-06  NBF=   254
 NBsUse=   254 1.00D-06 EigRej= -1.00D+00 NBFU=   254
 ExpMin= 1.46D-02 ExpMax= 4.39D+04 ExpMxC= 1.51D+03 IAcc=3 IRadAn=         5 AccDes= 0.00D+00
 Harris functional with IExCor=  205 and IRadAn=       5 diagonalized for initial guess.
 HarFok:  IExCor=  205 AccDes= 0.00D+00 IRadAn=         5 IDoV= 1 UseB2=F ITyADJ=14
 ICtDFT=  3500011 ScaDFX=  1.000000  1.000000  1.000000  1.000000
 FoFCou: FMM=F IPFlag=           0 FMFlag=      100000 FMFlg1=           0
         NFxFlg=           0 DoJE=T BraDBF=F KetDBF=T FulRan=T
         wScrn=  0.000000 ICntrl=       500 IOpCl=  0 I1Cent=   200000004 NGrid=           0
         NMat0=    1 NMatS0=      1 NMatT0=    0 NMatD0=    1 NMtDS0=    0 NMtDT0=    0
 Symmetry not used in FoFCou.
 Requested convergence on RMS density matrix=1.00D-08 within 128 cycles.
 Requested convergence on MAX density matrix=1.00D-06.
 Requested convergence on             energy=1.00D-06.
 No special actions if energy rises.
 SCF Done:  E(RHF) =  -1.13250954582     A.U. after    7 cycles
            NFock=  7  Conv=0.15D-08     -V/T= 1.9969
 Range of M.O.s used for correlation:     1   254
 NBasis=   254 NAE=     1 NBE=     1 NFC=     0 NFV=     0
 NROrb=    254 NOA=     1 NOB=     1 NVA=   253 NVB=   253

 **** Warning!!: The largest alpha MO coefficient is  0.17246479D+03

 Fully direct method using O(ONN) memory.
 JobTyp=1 Pass  1:  I=   1 to   1 NPSUse= 10 ParTrn=T ParDer=T DoDerP=T.
 Spin components of T(2) and E(2):
     alpha-alpha T2 =       0.0000000000D+00 E2=      0.0000000000D+00
     alpha-beta  T2 =       0.9320062582D-02 E2=     -0.2821278015D-01
     beta-beta   T2 =       0.0000000000D+00 E2=      0.0000000000D+00
 ANorm=    0.1004649224D+01
 E2 =    -0.2821278015D-01 EUMP2 =    -0.11607223259756D+01
          IDoAtm=00000000000001111
          Differentiating once with respect to electric field.
                with respect to dipole field.
          Differentiating once with respect to nuclear coordinates.
 Keep R1 ints in memory in canonical form, NReq=533613764.
          There are     1 degrees of freedom in the 1st order CPHF.  IDoFFX=0 NUNeed=     1.
 LinEq1:  Iter=  0 NonCon=     1 RMS=9.68D-04 Max=6.03D-03 NDo=     1
 AX will form     1 AO Fock derivatives at one time.
 LinEq1:  Iter=  1 NonCon=     1 RMS=4.28D-05 Max=3.48D-04 NDo=     1
 LinEq1:  Iter=  2 NonCon=     1 RMS=2.61D-06 Max=1.59D-05 NDo=     1
 LinEq1:  Iter=  3 NonCon=     1 RMS=1.13D-07 Max=6.97D-07 NDo=     1
 LinEq1:  Iter=  4 NonCon=     1 RMS=3.78D-09 Max=2.06D-08 NDo=     1
 LinEq1:  Iter=  5 NonCon=     1 RMS=2.23D-10 Max=9.18D-10 NDo=     1
 LinEq1:  Iter=  6 NonCon=     0 RMS=1.42D-11 Max=7.19D-11 NDo=     1
 Linear equations converged to 1.000D-10 1.000D-09 after     6 iterations.
 End of Minotr F.D. properties file   721 does not exist.
 End of Minotr F.D. properties file   722 does not exist.
 End of Minotr F.D. properties file   788 does not exist.

 **********************************************************************

            Population analysis using the SCF Density.

 **********************************************************************

 Alpha  occ. eigenvalues --   -0.59841
 Alpha virt. eigenvalues --    0.01986   0.02930   0.02972   0.03281   0.06142
 Alpha virt. eigenvalues --    0.07216   0.07959   0.09776   0.09866   0.10032
 Alpha virt. eigenvalues --    0.10695   0.11494   0.12188   0.12784   0.13618
 Alpha virt. eigenvalues --    0.15206   0.15884   0.16227   0.16651   0.18239
 Alpha virt. eigenvalues --    0.18983   0.19118   0.20401   0.20909   0.22098
 Alpha virt. eigenvalues --    0.22549   0.23680   0.24372   0.24659   0.25345
 Alpha virt. eigenvalues --    0.25713   0.26222   0.26911   0.27267   0.27877
 Alpha virt. eigenvalues --    0.28947   0.29950   0.31140   0.31189   0.31552
 Alpha virt. eigenvalues --    0.34851   0.35322   0.36956   0.37101   0.37642
 Alpha virt. eigenvalues --    0.38548   0.39137   0.40179   0.43087   0.43663
 Alpha virt. eigenvalues --    0.43834   0.45686   0.46646   0.47988   0.49166
 Alpha virt. eigenvalues --    0.50085   0.51834   0.53354   0.55455   0.57838
 Alpha virt. eigenvalues --    0.59513   0.61147   0.61929   0.62760   0.66403
 Alpha virt. eigenvalues --    0.69558   0.71431   0.72755   0.73456   0.73881
 Alpha virt. eigenvalues --    0.75707   0.75978   0.78762   0.79369   0.81114
 Alpha virt. eigenvalues --    0.83291   0.88377   0.89670   0.91092   0.91927
 Alpha virt. eigenvalues --    0.94628   0.97100   0.97808   0.99678   1.00693
 Alpha virt. eigenvalues --    1.01716   1.03356   1.05579   1.10674   1.11005
 Alpha virt. eigenvalues --    1.12463   1.13637   1.16908   1.17887   1.18218
 Alpha virt. eigenvalues --    1.22600   1.26986   1.27931   1.36157   1.37332
 Alpha virt. eigenvalues --    1.40421   1.42126   1.48479   1.49558   1.50307
 Alpha virt. eigenvalues --    1.53510   1.54165   1.55369   1.57647   1.66550
 Alpha virt. eigenvalues --    1.68639   1.70184   1.70910   1.71606   1.74616
 Alpha virt. eigenvalues --    1.75306   1.76548   1.78980   1.83157   1.86793
 Alpha virt. eigenvalues --    1.87746   1.91864   1.92476   1.95044   1.99468
 Alpha virt. eigenvalues --    2.02400   2.02531   2.03986   2.04576   2.07041
 Alpha virt. eigenvalues --    2.08092   2.12261   2.12862   2.21553   2.21861
 Alpha virt. eigenvalues --    2.29695   2.30506   2.30767   2.32049   2.37475
 Alpha virt. eigenvalues --    2.38286   2.38883   2.39991   2.41260   2.42417
 Alpha virt. eigenvalues --    2.47140   2.49693   2.51586   2.54516   2.56860
 Alpha virt. eigenvalues --    2.58274   2.59211   2.70702   2.72742   2.79797
 Alpha virt. eigenvalues --    2.80655   2.83294   2.88216   2.89544   2.91629
 Alpha virt. eigenvalues --    2.93522   2.95396   2.95755   3.00693   3.08841
 Alpha virt. eigenvalues --    3.11566   3.12907   3.14643   3.22658   3.29081
 Alpha virt. eigenvalues --    3.30089   3.31958   3.33626   3.35696   3.36609
 Alpha virt. eigenvalues --    3.47111   3.48864   3.49276   3.52094   3.54550
 Alpha virt. eigenvalues --    3.58502   3.73596   3.76518   3.77525   3.93051
 Alpha virt. eigenvalues --    4.02690   4.18387   4.21369   4.25741   4.37138
 Alpha virt. eigenvalues --    4.40645   4.59608   4.61994   4.63168   4.64231
 Alpha virt. eigenvalues --    4.82230   4.84099   4.86075   4.91710   4.92678
 Alpha virt. eigenvalues --    4.93963   5.05513   5.06496   5.32319   5.34646
 Alpha virt. eigenvalues --    5.64861   5.87854   7.02768   7.03307   7.10424
 Alpha virt. eigenvalues --    7.13442   7.22440   7.23594   7.36705   7.67460
 Alpha virt. eigenvalues --    7.72475   7.73046   7.75428   7.80569   7.83060
 Alpha virt. eigenvalues --    7.93599   7.97949   8.06172   8.14961   8.31428
 Alpha virt. eigenvalues --    8.90083   9.65977  10.08313  10.19884  10.21899
 Alpha virt. eigenvalues --   10.25802  10.31333  13.50314  13.55033  13.66643
 Alpha virt. eigenvalues --   13.77066  14.02991  14.14739  18.55189  18.65258
 Alpha virt. eigenvalues --   24.90315  25.11098  25.17314  42.01019  69.74732
 Alpha virt. eigenvalues --   69.89830  69.98555  69.99946  70.02836  70.06852
 Alpha virt. eigenvalues --  139.78950 139.80588 308.93975
          Condensed to atoms (all electrons):
               1          2          3          4          5          6
     1  C    0.114257  -0.003752   0.022558  -0.052158   0.002127  -0.072880
     2  C   -0.003752   0.007406  -0.006574   0.010495  -0.009330   0.001284
     3  C    0.022558  -0.006574   0.013709  -0.014123   0.006973  -0.021248
     4  C   -0.052158   0.010495  -0.014123   0.057803  -0.026937   0.017658
     5  C    0.002127  -0.009330   0.006973  -0.026937   0.028561  -0.001400
     6  C   -0.072880   0.001284  -0.021248   0.017658  -0.001400   0.074660
     7  O   -0.000962   0.000033   0.000047   0.000625   0.000730  -0.000873
     8  O    0.000353  -0.000019   0.000032  -0.000374  -0.000057   0.000175
     9  H    0.000015  -0.000026   0.000025  -0.000023   0.000027  -0.000017
    10  H    0.000108  -0.000037   0.000120  -0.000056   0.000035  -0.000167
    11  Mg  -0.008451   0.000613  -0.001379   0.006878  -0.001547   0.002696
    12  H   -0.000697  -0.000054  -0.000149   0.000147   0.000035   0.000688
    13  H    0.000048  -0.000030   0.000015  -0.000131   0.000110  -0.000004
    14  H   -0.003894  -0.000002  -0.000078   0.002489   0.007141  -0.008611
    15  H   -0.004785  -0.000014  -0.000099   0.002598   0.007601  -0.008466
    16  H   -0.000160  -0.000002  -0.000004   0.000044   0.000121  -0.000062
    17  H   -0.000201  -0.000004  -0.000007   0.000049   0.000107   0.000003
               7          8          9         10         11         12
     1  C   -0.000962   0.000353   0.000015   0.000108  -0.008451  -0.000697
     2  C    0.000033  -0.000019  -0.000026  -0.000037   0.000613  -0.000054
     3  C    0.000047   0.000032   0.000025   0.000120  -0.001379  -0.000149
     4  C    0.000625  -0.000374  -0.000023  -0.000056   0.006878   0.000147
     5  C    0.000730  -0.000057   0.000027   0.000035  -0.001547   0.000035
     6  C   -0.000873   0.000175  -0.000017  -0.000167   0.002696   0.000688
     7  O    0.000213  -0.000023   0.000000   0.000001   0.000084  -0.000007
     8  O   -0.000023   0.000020   0.000000   0.000000  -0.000094  -0.000000
     9  H    0.000000   0.000000   0.000000   0.000000  -0.000001  -0.000000
    10  H    0.000001   0.000000   0.000000   0.000002  -0.000004  -0.000001
    11  Mg   0.000084  -0.000094  -0.000001  -0.000004   0.001621   0.000028
    12  H   -0.000007  -0.000000  -0.000000  -0.000001   0.000028   0.000009
    13  H   -0.000000   0.000000   0.000000   0.000000  -0.000009  -0.000000
    14  H    0.001181  -0.000134  -0.000000  -0.000000  -0.008203   0.000000
    15  H    0.001408  -0.000094  -0.000000  -0.000000  -0.007889   0.000001
    16  H    0.000027  -0.000002  -0.000000  -0.000000  -0.000042   0.000000
    17  H    0.000022  -0.000002  -0.000000  -0.000000  -0.000008   0.000000
              13         14         15         16         17
     1  C    0.000048  -0.003894  -0.004785  -0.000160  -0.000201
     2  C   -0.000030  -0.000002  -0.000014  -0.000002  -0.000004
     3  C    0.000015  -0.000078  -0.000099  -0.000004  -0.000007
     4  C   -0.000131   0.002489   0.002598   0.000044   0.000049
     5  C    0.000110   0.007141   0.007601   0.000121   0.000107
     6  C   -0.000004  -0.008611  -0.008466  -0.000062   0.000003
     7  O   -0.000000   0.001181   0.001408   0.000027   0.000022
     8  O    0.000000  -0.000134  -0.000094  -0.000002  -0.000002
     9  H    0.000000  -0.000000  -0.000000  -0.000000  -0.000000
    10  H    0.000000  -0.000000  -0.000000  -0.000000  -0.000000
    11  Mg  -0.000009  -0.008203  -0.007889  -0.000042  -0.000008
    12  H   -0.000000   0.000000   0.000001   0.000000   0.000000
    13  H    0.000001  -0.000000  -0.000000  -0.000000  -0.000000
    14  H   -0.000000   0.588313   0.429895   0.000770   0.000334
    15  H   -0.000000   0.429895   0.587370   0.000533   0.000265
    16  H   -0.000000   0.000770   0.000533   0.000028   0.000014
    17  H   -0.000000   0.000334   0.000265   0.000014   0.000010
 Mulliken charges:
               1
     1  C    0.008474
     2  C    0.000013
     3  C    0.000183
     4  C   -0.004983
     5  C   -0.014297
     6  C    0.016563
     7  O   -0.002506
     8  O    0.000219
     9  H    0.000000
    10  H    0.000000
    11  Mg   0.015708
    12  H   -0.000001
    13  H    0.000000
    14  H   -0.009203
    15  H   -0.008322
    16  H   -0.001264
    17  H   -0.000582
 Sum of Mulliken charges =  -0.00000
 Mulliken charges with hydrogens summed into heavy atoms:
               1
     1  C    0.008472
     2  C    0.000013
     3  C    0.000183
     4  C   -0.004982
     5  C   -0.014297
     6  C    0.016563
     7  O   -0.002506
     8  O    0.000219
    11  Mg  -0.003664
         Mulliken charges condensed to fragments:
      1      0.019372
      2     -0.017525
      3     -0.001846
 Electronic spatial extent (au):  <R**2>=            244.7855
 Charge=             -0.0000 electrons
 Dipole moment (field-independent basis, Debye):
    X=              0.0032    Y=              0.0014    Z=              0.0004  Tot=              0.0035
 Quadrupole moment (field-independent basis, Debye-Ang):
   XX=             -1.9880   YY=             -1.9766   ZZ=             -1.5868
   XY=             -0.0485   XZ=             -0.1429   YZ=              0.1878
 Traceless Quadrupole moment (field-independent basis, Debye-Ang):
   XX=             -0.1376   YY=             -0.1261   ZZ=              0.2637
   XY=             -0.0485   XZ=             -0.1429   YZ=              0.1878
 Octapole moment (field-independent basis, Debye-Ang**2):
  XXX=            -34.5652  YYY=             -0.8417  ZZZ=             -3.5543  XYY=            -11.3696
  XXY=             -0.8888  XXZ=             -3.1590  XZZ=             -9.3350  YZZ=              0.0510
  YYZ=             -1.4190  XYZ=              1.0139
 Hexadecapole moment (field-independent basis, Debye-Ang**3):
 XXXX=           -400.3487 YYYY=             -2.3378 ZZZZ=             -7.9422 XXXY=            -10.2166
 XXXZ=            -40.1310 YYYX=             -4.8011 YYYZ=             -0.7422 ZZZX=            -20.5930
 ZZZY=             -0.3039 XXYY=            -66.1461 XXZZ=            -56.8050 YYZZ=             -1.8415
 XXYZ=              5.1969 YYXZ=             -8.1396 ZZXY=              0.2324
 N-N= 7.269890163007D-01 E-N=-3.658153471680D+00  KE= 1.135985013555D+00
 Calling FoFJK, ICntrl=  10002127 FMM=F ISym2X=0 I1Cent= 0 IOpClX= 0 NMat=1 NMatS=1 NMatT=0.
 Cartesian Forces:  Max     0.007723094 RMS     0.001699616
 CPIOFr:  IOpCl= 0 IRwI=-1 IRwCP=  731 ICalc=  2 LCPTot=      101349 Len1MO=      263944 IndFrg=      893181
 Counterpoise: doing calculation for fragment   3 using the basis set of the full-system, NewBq=T
 Basis read from rwf:  (5D, 7F)
   254 basis functions,   402 primitive gaussians,   263 cartesian basis functions
     1 alpha electrons        1 beta electrons
       nuclear repulsion energy         0.7084925963 Hartrees.
 NAtoms=   17 NActive=   17 NUniq=   17 SFac= 1.00D+00 NAtFMM=   60 NAOKFM=F Big=F
 Integral buffers will be    131072 words long.
 Raffenetti 1 integral format.
 Two-electron integral symmetry is turned off.
 One-electron integrals computed using PRISM.
 NBasis=   254 RedAO= T EigKep=  1.92D-06  NBF=   254
 NBsUse=   254 1.00D-06 EigRej= -1.00D+00 NBFU=   254
 ExpMin= 1.46D-02 ExpMax= 4.39D+04 ExpMxC= 1.51D+03 IAcc=3 IRadAn=         5 AccDes= 0.00D+00
 Harris functional with IExCor=  205 and IRadAn=       5 diagonalized for initial guess.
 HarFok:  IExCor=  205 AccDes= 0.00D+00 IRadAn=         5 IDoV= 1 UseB2=F ITyADJ=14
 ICtDFT=  3500011 ScaDFX=  1.000000  1.000000  1.000000  1.000000
 FoFCou: FMM=F IPFlag=           0 FMFlag=      100000 FMFlg1=           0
         NFxFlg=           0 DoJE=T BraDBF=F KetDBF=T FulRan=T
         wScrn=  0.000000 ICntrl=       500 IOpCl=  0 I1Cent=   200000004 NGrid=           0
         NMat0=    1 NMatS0=      1 NMatT0=    0 NMatD0=    1 NMtDS0=    0 NMtDT0=    0
 Symmetry not used in FoFCou.
 Requested convergence on RMS density matrix=1.00D-08 within 128 cycles.
 Requested convergence on MAX density matrix=1.00D-06.
 Requested convergence on             energy=1.00D-06.
 No special actions if energy rises.
 SCF Done:  E(RHF) =  -1.13248398468     A.U. after    7 cycles
            NFock=  7  Conv=0.13D-08     -V/T= 2.0144
 Range of M.O.s used for correlation:     1   254
 NBasis=   254 NAE=     1 NBE=     1 NFC=     0 NFV=     0
 NROrb=    254 NOA=     1 NOB=     1 NVA=   253 NVB=   253

 **** Warning!!: The largest alpha MO coefficient is  0.15218679D+03

 Fully direct method using O(ONN) memory.
 JobTyp=1 Pass  1:  I=   1 to   1 NPSUse= 10 ParTrn=T ParDer=T DoDerP=T.
 Spin components of T(2) and E(2):
     alpha-alpha T2 =       0.0000000000D+00 E2=      0.0000000000D+00
     alpha-beta  T2 =       0.9450417235D-02 E2=     -0.2821544368D-01
     beta-beta   T2 =       0.0000000000D+00 E2=      0.0000000000D+00
 ANorm=    0.1004714097D+01
 E2 =    -0.2821544368D-01 EUMP2 =    -0.11606994283562D+01
          IDoAtm=00000000000001111
          Differentiating once with respect to electric field.
                with respect to dipole field.
          Differentiating once with respect to nuclear coordinates.
 Keep R1 ints in memory in canonical form, NReq=533613764.
          There are     1 degrees of freedom in the 1st order CPHF.  IDoFFX=0 NUNeed=     1.
 LinEq1:  Iter=  0 NonCon=     1 RMS=1.06D-03 Max=6.07D-03 NDo=     1
 AX will form     1 AO Fock derivatives at one time.
 LinEq1:  Iter=  1 NonCon=     1 RMS=5.15D-05 Max=3.83D-04 NDo=     1
 LinEq1:  Iter=  2 NonCon=     1 RMS=2.87D-06 Max=1.90D-05 NDo=     1
 LinEq1:  Iter=  3 NonCon=     1 RMS=1.24D-07 Max=8.81D-07 NDo=     1
 LinEq1:  Iter=  4 NonCon=     1 RMS=6.05D-09 Max=2.74D-08 NDo=     1
 LinEq1:  Iter=  5 NonCon=     1 RMS=3.95D-10 Max=1.73D-09 NDo=     1
 LinEq1:  Iter=  6 NonCon=     0 RMS=2.79D-11 Max=9.45D-11 NDo=     1
 Linear equations converged to 1.000D-10 1.000D-09 after     6 iterations.
 End of Minotr F.D. properties file   721 does not exist.
 End of Minotr F.D. properties file   722 does not exist.
 End of Minotr F.D. properties file   788 does not exist.

 **********************************************************************

            Population analysis using the SCF Density.

 **********************************************************************

 Alpha  occ. eigenvalues --   -0.59254
 Alpha virt. eigenvalues --    0.01989   0.02812   0.03032   0.03400   0.06162
 Alpha virt. eigenvalues --    0.07205   0.07880   0.09246   0.09791   0.10281
 Alpha virt. eigenvalues --    0.10781   0.11435   0.12532   0.12719   0.13148
 Alpha virt. eigenvalues --    0.15257   0.15555   0.16144   0.17145   0.18333
 Alpha virt. eigenvalues --    0.18933   0.19339   0.20093   0.21604   0.21898
 Alpha virt. eigenvalues --    0.22683   0.23397   0.24502   0.25122   0.25321
 Alpha virt. eigenvalues --    0.25624   0.26523   0.26895   0.27583   0.27988
 Alpha virt. eigenvalues --    0.29384   0.30475   0.30862   0.31257   0.32364
 Alpha virt. eigenvalues --    0.32614   0.34950   0.36544   0.36782   0.37343
 Alpha virt. eigenvalues --    0.38434   0.39025   0.40048   0.40926   0.43253
 Alpha virt. eigenvalues --    0.45367   0.45624   0.46611   0.47703   0.49078
 Alpha virt. eigenvalues --    0.50629   0.52157   0.54438   0.55314   0.57763
 Alpha virt. eigenvalues --    0.59483   0.60970   0.61531   0.62663   0.65777
 Alpha virt. eigenvalues --    0.69900   0.71476   0.72770   0.73513   0.75414
 Alpha virt. eigenvalues --    0.75776   0.76868   0.77336   0.79036   0.82052
 Alpha virt. eigenvalues --    0.83578   0.87360   0.89756   0.90951   0.91967
 Alpha virt. eigenvalues --    0.94849   0.95774   0.97327   1.00165   1.00768
 Alpha virt. eigenvalues --    1.01641   1.03441   1.07213   1.10174   1.11144
 Alpha virt. eigenvalues --    1.12906   1.13802   1.16926   1.17551   1.18245
 Alpha virt. eigenvalues --    1.23665   1.26658   1.27763   1.36413   1.37245
 Alpha virt. eigenvalues --    1.40694   1.42155   1.43075   1.49581   1.50218
 Alpha virt. eigenvalues --    1.52930   1.54048   1.55074   1.57503   1.63721
 Alpha virt. eigenvalues --    1.66557   1.69489   1.70961   1.71724   1.73236
 Alpha virt. eigenvalues --    1.75969   1.76102   1.82733   1.85121   1.87142
 Alpha virt. eigenvalues --    1.88030   1.90539   1.91746   1.92305   1.99208
 Alpha virt. eigenvalues --    2.01968   2.02830   2.03411   2.06544   2.07665
 Alpha virt. eigenvalues --    2.10987   2.12175   2.12862   2.21616   2.22209
 Alpha virt. eigenvalues --    2.29952   2.30438   2.31966   2.34905   2.37198
 Alpha virt. eigenvalues --    2.38136   2.38972   2.41115   2.41708   2.43974
 Alpha virt. eigenvalues --    2.47146   2.50149   2.51401   2.54492   2.56884
 Alpha virt. eigenvalues --    2.58414   2.59199   2.70848   2.72707   2.78086
 Alpha virt. eigenvalues --    2.80688   2.83231   2.86044   2.89374   2.91226
 Alpha virt. eigenvalues --    2.92655   2.93649   2.95787   3.00376   3.08622
 Alpha virt. eigenvalues --    3.11608   3.12873   3.14389   3.22287   3.29014
 Alpha virt. eigenvalues --    3.29950   3.31912   3.33517   3.35608   3.36542
 Alpha virt. eigenvalues --    3.47051   3.48815   3.49221   3.52016   3.54506
 Alpha virt. eigenvalues --    3.58116   3.66520   3.73663   3.76710   3.93017
 Alpha virt. eigenvalues --    4.02622   4.16672   4.20951   4.26983   4.37418
 Alpha virt. eigenvalues --    4.42983   4.59544   4.61660   4.63071   4.64160
 Alpha virt. eigenvalues --    4.82183   4.84286   4.86120   4.91704   4.92910
 Alpha virt. eigenvalues --    4.93899   5.06196   5.19325   5.32260   5.34541
 Alpha virt. eigenvalues --    5.64742   5.87705   7.02742   7.03290   7.10391
 Alpha virt. eigenvalues --    7.13405   7.22407   7.23547   7.36659   7.67407
 Alpha virt. eigenvalues --    7.72452   7.73029   7.75395   7.80547   7.83007
 Alpha virt. eigenvalues --    7.93559   7.97917   8.06137   8.14916   8.31374
 Alpha virt. eigenvalues --    8.90045   9.65941  10.08266  10.19857  10.21855
 Alpha virt. eigenvalues --   10.25776  10.31292  13.50205  13.54868  13.66522
 Alpha virt. eigenvalues --   13.76928  14.02914  14.14533  18.55088  18.65099
 Alpha virt. eigenvalues --   24.90264  25.11032  25.17275  42.00962  69.74695
 Alpha virt. eigenvalues --   69.89781  69.98521  69.99907  70.02814  70.06813
 Alpha virt. eigenvalues --  139.78840 139.80434 308.93914
          Condensed to atoms (all electrons):
               1          2          3          4          5          6
     1  C    0.115082  -0.022939   0.038003  -0.047117   0.022253  -0.107944
     2  C   -0.022939   0.008419  -0.014691   0.016270  -0.008611   0.022129
     3  C    0.038003  -0.014691   0.027517  -0.031617   0.016318  -0.036653
     4  C   -0.047117   0.016270  -0.031617   0.040856  -0.019751   0.043479
     5  C    0.022253  -0.008611   0.016318  -0.019751   0.012423  -0.023251
     6  C   -0.107944   0.022129  -0.036653   0.043479  -0.023251   0.104778
     7  O   -0.002632   0.000014  -0.000079   0.000643   0.001084   0.000441
     8  O    0.003466  -0.000518   0.001080  -0.002364  -0.000185  -0.001982
     9  H    0.000080  -0.000069   0.000139  -0.000134   0.000065  -0.000082
    10  H   -0.000377   0.000151  -0.000256   0.000188  -0.000107   0.000395
    11  Mg   0.000724  -0.000167   0.000362  -0.000630   0.000122  -0.000413
    12  H    0.000405  -0.000047   0.000068  -0.000065   0.000042  -0.000420
    13  H   -0.000176   0.000090  -0.000235   0.000361  -0.000185   0.000156
    14  H   -0.000036   0.000001  -0.000003   0.000011   0.000045  -0.000021
    15  H    0.000048  -0.000002   0.000004  -0.000014  -0.000047   0.000012
    16  H    0.006834  -0.000195   0.000305  -0.000966  -0.003875   0.000705
    17  H    0.015929  -0.000516   0.000793  -0.002099  -0.005273  -0.004382
               7          8          9         10         11         12
     1  C   -0.002632   0.003466   0.000080  -0.000377   0.000724   0.000405
     2  C    0.000014  -0.000518  -0.000069   0.000151  -0.000167  -0.000047
     3  C   -0.000079   0.001080   0.000139  -0.000256   0.000362   0.000068
     4  C    0.000643  -0.002364  -0.000134   0.000188  -0.000630  -0.000065
     5  C    0.001084  -0.000185   0.000065  -0.000107   0.000122   0.000042
     6  C    0.000441  -0.001982  -0.000082   0.000395  -0.000413  -0.000420
     7  O    0.001991  -0.000535   0.000000  -0.000004  -0.000298   0.000010
     8  O   -0.000535   0.000933   0.000000  -0.000001   0.000059   0.000001
     9  H    0.000000   0.000000   0.000002  -0.000001   0.000001   0.000000
    10  H   -0.000004  -0.000001  -0.000001   0.000012  -0.000001  -0.000001
    11  Mg  -0.000298   0.000059   0.000001  -0.000001   0.000233  -0.000001
    12  H    0.000010   0.000001   0.000000  -0.000001  -0.000001   0.000007
    13  H    0.000000  -0.000013  -0.000001   0.000000  -0.000008  -0.000000
    14  H    0.000031  -0.000016  -0.000000   0.000000  -0.000005  -0.000000
    15  H   -0.000035   0.000016   0.000000  -0.000000   0.000007   0.000000
    16  H   -0.007858   0.000721   0.000000  -0.000000   0.000851   0.000001
    17  H   -0.014360   0.001126   0.000000  -0.000000   0.002018   0.000004
              13         14         15         16         17
     1  C   -0.000176  -0.000036   0.000048   0.006834   0.015929
     2  C    0.000090   0.000001  -0.000002  -0.000195  -0.000516
     3  C   -0.000235  -0.000003   0.000004   0.000305   0.000793
     4  C    0.000361   0.000011  -0.000014  -0.000966  -0.002099
     5  C   -0.000185   0.000045  -0.000047  -0.003875  -0.005273
     6  C    0.000156  -0.000021   0.000012   0.000705  -0.004382
     7  O    0.000000   0.000031  -0.000035  -0.007858  -0.014360
     8  O   -0.000013  -0.000016   0.000016   0.000721   0.001126
     9  H   -0.000001  -0.000000   0.000000   0.000000   0.000000
    10  H    0.000000   0.000000  -0.000000  -0.000000  -0.000000
    11  Mg  -0.000008  -0.000005   0.000007   0.000851   0.002018
    12  H   -0.000000  -0.000000   0.000000   0.000001   0.000004
    13  H    0.000009   0.000000  -0.000000  -0.000000  -0.000000
    14  H    0.000000   0.000012  -0.000010  -0.000484  -0.000338
    15  H   -0.000000  -0.000010   0.000011   0.000366   0.000297
    16  H   -0.000000  -0.000484   0.000366   0.563244   0.422816
    17  H   -0.000000  -0.000338   0.000297   0.422816   0.611574
 Mulliken charges:
               1
     1  C   -0.021605
     2  C    0.000681
     3  C   -0.001056
     4  C    0.002948
     5  C    0.008931
     6  C    0.003053
     7  O    0.021587
     8  O   -0.001787
     9  H   -0.000000
    10  H    0.000000
    11  Mg  -0.002854
    12  H   -0.000004
    13  H    0.000001
    14  H    0.000812
    15  H   -0.000655
    16  H    0.017537
    17  H   -0.027589
 Sum of Mulliken charges =  -0.00000
 Mulliken charges with hydrogens summed into heavy atoms:
               1
     1  C   -0.021609
     2  C    0.000681
     3  C   -0.001056
     4  C    0.002949
     5  C    0.008931
     6  C    0.003053
     7  O    0.021587
     8  O   -0.001787
    11  Mg  -0.012748
         Mulliken charges condensed to fragments:
      1      0.009894
      2      0.000158
      3     -0.010052
 Electronic spatial extent (au):  <R**2>=            199.3419
 Charge=             -0.0000 electrons
 Dipole moment (field-independent basis, Debye):
    X=              0.0018    Y=              0.0029    Z=              0.0019  Tot=              0.0039
 Quadrupole moment (field-independent basis, Debye-Ang):
   XX=             -1.5482   YY=             -1.9972   ZZ=             -2.0826
   XY=             -0.2037   XZ=             -0.0818   YZ=              0.0435
 Traceless Quadrupole moment (field-independent basis, Debye-Ang):
   XX=              0.3278   YY=             -0.1212   ZZ=             -0.2067
   XY=             -0.2037   XZ=             -0.0818   YZ=              0.0435
 Octapole moment (field-independent basis, Debye-Ang**2):
  XXX=            -22.1895  YYY=            -10.5478  ZZZ=              7.7627  XYY=            -10.2495
  XXY=             -4.7479  XXZ=              1.1313  XZZ=             -9.6670  YZZ=             -3.7580
  YYZ=              2.6443  XYZ=              0.3185
 Hexadecapole moment (field-independent basis, Debye-Ang**3):
 XXXX=           -213.9402 YYYY=            -39.3265 ZZZZ=            -21.4159 XXXY=            -53.4485
 XXXZ=             21.9151 YYYX=            -51.9531 YYYZ=             13.5269 ZZZX=             36.5033
 ZZZY=             13.8071 XXYY=            -57.9557 XXZZ=            -48.0958 YYZZ=            -10.6093
 XXYZ=              5.4709 YYXZ=             13.2403 ZZXY=            -17.7388
 N-N= 7.084925963057D-01 E-N=-3.613228587074D+00  KE= 1.116361730637D+00
 Calling FoFJK, ICntrl=  10002127 FMM=F ISym2X=0 I1Cent= 0 IOpClX= 0 NMat=1 NMatS=1 NMatT=0.
 Cartesian Forces:  Max     0.005173401 RMS     0.001112107
 CPIOFr:  IOpCl= 0 IRwI=-1 IRwCP=  731 ICalc=  3 LCPTot=      101349 Len1MO=      263944 IndFrg=     1157125
 Counterpoise: doing calculation for fragment   1 using the basis set of the fragment.
 Basis read from rwf:  (5D, 7F)
   230 basis functions,   370 primitive gaussians,   239 cartesian basis functions
    34 alpha electrons       34 beta electrons
       nuclear repulsion energy       447.3227354312 Hartrees.
 NAtoms=   17 NActive=   13 NUniq=   13 SFac= 1.00D+00 NAtFMM=   60 NAOKFM=F Big=F
 Integral buffers will be    131072 words long.
 Raffenetti 1 integral format.
 Two-electron integral symmetry is turned off.
 One-electron integrals computed using PRISM.
 NBasis=   230 RedAO= T EigKep=  2.02D-06  NBF=   230
 NBsUse=   230 1.00D-06 EigRej= -1.00D+00 NBFU=   230
 ExpMin= 1.46D-02 ExpMax= 4.39D+04 ExpMxC= 1.51D+03 IAcc=3 IRadAn=         5 AccDes= 0.00D+00
 Harris functional with IExCor=  205 and IRadAn=       5 diagonalized for initial guess.
 HarFok:  IExCor=  205 AccDes= 0.00D+00 IRadAn=         5 IDoV= 1 UseB2=F ITyADJ=14
 ICtDFT=  3500011 ScaDFX=  1.000000  1.000000  1.000000  1.000000
 FoFCou: FMM=F IPFlag=           0 FMFlag=      100000 FMFlg1=           0
         NFxFlg=           0 DoJE=T BraDBF=F KetDBF=T FulRan=T
         wScrn=  0.000000 ICntrl=       500 IOpCl=  0 I1Cent=   200000004 NGrid=           0
[...]
     Eigenvalues --- 1000.000001000.000001000.000001000.000001000.00000
     Eigenvalues --- 1000.000001000.000001000.000001000.000001000.00000
     Eigenvalues --- 1000.000001000.000001000.000001000.000001000.00000
     Eigenvalues --- 1000.000001000.000001000.000001000.000001000.00000
     Eigenvalues --- 1000.000001000.000001000.000001000.000001000.00000
     Eigenvalues --- 1000.000001000.000001000.000001000.000001000.00000
     Eigenvalues --- 1000.000001000.000001000.000001000.000001000.00000
     Eigenvalues --- 1000.000001000.000001000.000001000.000001000.00000
     Eigenvalues --- 1000.000001000.000001000.000001000.000001000.00000
     Eigenvalues --- 1000.000001000.000001000.000001000.000001000.00000
     Eigenvalues --- 1000.000001000.000001000.000001000.000001000.00000
     Eigenvalues --- 1000.000001000.000001000.00000
 Eigenvalue     1 is   4.50D-05 Eigenvector:
                          D3        D10       D4        D6        D9
   1                    0.70807   0.49132  -0.28540   0.23863  -0.22595
                          D2        D1        D7        D11       D8
   1                   -0.15636  -0.15636   0.07877  -0.06607   0.06385
 Eigenvalue     2 is   9.11D-05 Eigenvector:
                          D3        D10       D6        D9        D4
   1                    0.59590  -0.57616  -0.29381   0.28383  -0.19479
                          D2        D1        D12       D7        D5
   1                    0.19012   0.19012   0.15100   0.06646  -0.06159
 En-DIIS/RFO-DIIS/Sim-DIIS IScMMF=       -3 using points:    83   82   81   80   79   78   77   76   75   74
 RFO step:  Lambda=-1.60058433D-07.
 DIIS inversion failure, remove point  10.
 DIIS inversion failure, remove point   9.
 DIIS inversion failure, remove point   8.
 DIIS inversion failure, remove point   7.
 DIIS inversion failure, remove point   6.
 DIIS inversion failure, remove point   5.
 RFO-DIIS uses    4 points instead of   10
 EnCoef did   100 forward-backward iterations
 EnCoef did   100 forward-backward iterations
 EnCoef did   100 forward-backward iterations
 EnCoef did   100 forward-backward iterations
 EnCoef did   100 forward-backward iterations
 EnCoef did   100 forward-backward iterations
 Rare condition: small coef for last iteration:  0.344D-05
 EnCoef did   100 forward-backward iterations
 DidBck=F Rises=T RFO-DIIS coefs:    1.44451   -1.13024    0.69547   -0.00974    0.00000
                  RFO-DIIS coefs:    0.00000    0.00000    0.00000    0.00000    0.00000
 Iteration  1 RMS(Cart)=  0.00187383 RMS(Int)=  0.00006283
 Iteration  2 RMS(Cart)=  0.00000589 RMS(Int)=  0.00005715
 Iteration  3 RMS(Cart)=  0.00000000 RMS(Int)=  0.00005715
 Variable       Old X    -DE/DX   Delta X   Delta X   Delta X     New X
                                 (Linear)    (Quad)   (Total)
    X1       -0.06074  -0.00000   0.00000   0.00000   0.00000  -0.06074
    Y1        2.60861   0.00000  -0.00000   0.00000   0.00000   2.60861
    Z1        0.10031  -0.00000   0.00001   0.00000   0.00000   0.10031
    X2       -2.33852  -0.00000  -0.00000   0.00000   0.00000  -2.33852
    Y2        1.32367  -0.00000   0.00000   0.00000   0.00000   1.32367
    Z2       -0.01486  -0.00000   0.00000   0.00000   0.00000  -0.01486
    X3       -2.33858   0.00000  -0.00000   0.00000   0.00000  -2.33858
    Y3       -1.32351  -0.00000  -0.00000   0.00000   0.00000  -1.32351
    Z3       -0.12148  -0.00000  -0.00000   0.00000   0.00000  -0.12148
    X4       -0.04561  -0.00000  -0.00000   0.00000   0.00000  -0.04561
    Y4       -2.64836  -0.00000  -0.00000   0.00000   0.00000  -2.64836
    Z4       -0.05120  -0.00000   0.00000   0.00000   0.00000  -0.05120
    X5        2.26322  -0.00000  -0.00000   0.00000   0.00000   2.26322
    Y5       -1.34199  -0.00000   0.00000   0.00000   0.00000  -1.34199
    Z5        0.03263  -0.00000  -0.00001   0.00000   0.00000   0.03263
    X6        2.28484   0.00000  -0.00001   0.00000   0.00000   2.28484
    Y6        1.41479  -0.00000   0.00003   0.00000   0.00000   1.41479
    Z6       -0.03390  -0.00000  -0.00006   0.00000   0.00000  -0.03390
    X7        4.48698  -0.00002   0.00001   0.00000   0.00000   4.48698
    Y7        2.64440   0.00001  -0.00005   0.00000   0.00000   2.64440
    Z7        0.04923  -0.00000   0.00006   0.00000   0.00000   0.04923
    X8        4.49794   0.00000   0.00000   0.00000   0.00000   4.49794
    Y8       -2.65393  -0.00000  -0.00000   0.00000   0.00000  -2.65393
    Z8       -0.00573   0.00001   0.00005   0.00000   0.00000  -0.00573
    X9       -4.11179   0.00000  -0.00000   0.00000   0.00000  -4.11179
    Y9       -2.36045   0.00000  -0.00000   0.00000   0.00000  -2.36045
    Z9        0.00000   0.00000  -0.00000   0.00000   0.00000   0.00000
   X10       -4.11172   0.00000  -0.00000   0.00000   0.00000  -4.11172
   Y10        2.36068   0.00000   0.00000   0.00000   0.00000   2.36068
   Z10       -0.00000  -0.00000  -0.00000   0.00000   0.00000  -0.00000
   X11        6.86721   0.00000  -0.00000   0.00000   0.00000   6.86721
   Y11       -0.02422   0.00003   0.00003   0.00000   0.00000  -0.02422
   Z11       -0.07451   0.00000  -0.00005   0.00000   0.00000  -0.07451
   X12        0.00217   0.00000   0.00000   0.00000   0.00000   0.00217
   Y12        4.69999  -0.00000   0.00000   0.00000   0.00000   4.69999
   Z12       -0.00384   0.00000  -0.00000   0.00000   0.00000  -0.00384
   X13        0.00177  -0.00000   0.00000   0.00000   0.00000   0.00177
   Y13       -4.70018  -0.00000   0.00000   0.00000   0.00000  -4.70018
   Z13        0.12334  -0.00000   0.00000   0.00000   0.00000   0.12334
    R1        4.83933  -0.00002  -0.00131  -0.00110  -0.00240   4.83694
    R2        4.18012  -0.00001  -0.00047  -0.00065  -0.00114   4.17897
    R3        4.32748   0.00000  -0.00030  -0.00082  -0.00114   4.32635
    R4        4.31472   0.00001   0.00041   0.00034   0.00078   4.31550
    R5        4.17552   0.00001   0.00024   0.00006   0.00031   4.17583
    R6        1.41458   0.00008  -0.00010   0.00034   0.00024   1.41482
    R7        6.02348   0.00001   0.00039   0.00208   0.00248   6.02595
    R8        1.41468   0.00008   0.00006   0.00003   0.00009   1.41477
    A1        2.78500   0.00001   0.00027   0.00022   0.00045   2.78545
    A2        3.03285  -0.00001   0.00013  -0.00037  -0.00023   3.03262
    A3        2.91775  -0.00001  -0.00035   0.00024  -0.00015   2.91761
    A4        1.67379   0.00001  -0.00050  -0.00040  -0.00091   1.67288
    A5        1.35383  -0.00001   0.00028  -0.00037  -0.00008   1.35375
    A6        1.68613   0.00001   0.00028  -0.00022   0.00007   1.68620
    A7        2.92650  -0.00001   0.00069   0.00031   0.00102   2.92752
    A8        3.01425  -0.00001  -0.00000  -0.00032  -0.00034   3.01390
    A9        1.90933   0.00002   0.00012   0.00075   0.00088   1.91021
   A10        1.24396  -0.00002   0.00013   0.00063   0.00077   1.24473
   A11        1.57717   0.00000   0.00012   0.00061   0.00073   1.57790
   A12        0.70955  -0.00001   0.00008   0.00011   0.00018   0.70974
   A13        2.07397  -0.00000  -0.00029  -0.00068  -0.00097   2.07300
   A14        2.30495  -0.00002   0.00026   0.00034   0.00061   2.30556
    D1       -3.11661  -0.00000   0.00402   0.00042   0.00434  -3.11227
    D2        0.15469  -0.00000   0.00414   0.00042   0.00434   0.15902
    D3       -0.11333  -0.00000  -0.02324   0.00066  -0.02235  -0.13568
    D4        3.11420  -0.00000   0.01018  -0.00181   0.00818   3.12239
    D5        3.11692   0.00000  -0.00116   0.00042  -0.00068   3.11624
    D6       -0.08652   0.00000  -0.00673  -0.00280  -0.00939  -0.09592
    D7       -3.12119   0.00000  -0.00256   0.00005  -0.00250  -3.12369
    D8       -3.12414   0.00000  -0.00222   0.00041  -0.00183  -3.12597
    D9        2.97959  -0.00001   0.00451  -0.00225   0.00235   2.98194
   D10        0.31761  -0.00001  -0.01267  -0.00199  -0.01481   0.30280
   D11        3.09827  -0.00001   0.00194  -0.00419  -0.00216   3.09612
   D12        0.00585   0.00000   0.00072   0.00302   0.00381   0.00966
         Item               Value     Threshold  Converged?
 Maximum Force            0.000081     0.000450     YES
 RMS     Force            0.000021     0.000300     YES
 Maximum Displacement     0.010220     0.001800     NO 
 RMS     Displacement     0.001878     0.001200     NO 
 Predicted change in Energy=-9.136392D-08
 Optimization stopped.
    -- Number of steps exceeded,  NStep=  83
    -- Flag reset to prevent archiving.
                           ----------------------------
                           ! Non-Optimized Parameters !
                           ! (Angstroms and Degrees)  !
 --------------------------                            --------------------------
 ! Name  Definition              Value          Derivative Info.                !
 --------------------------------------------------------------------------------
 ! X1    R(1,-1)                -0.0321         -DE/DX =    0.0                 !
 ! Y1    R(1,-2)                 1.3804         -DE/DX =    0.0                 !
 ! Z1    R(1,-3)                 0.0531         -DE/DX =    0.0                 !
 ! X2    R(2,-1)                -1.2375         -DE/DX =    0.0                 !
 ! Y2    R(2,-2)                 0.7005         -DE/DX =    0.0                 !
 ! Z2    R(2,-3)                -0.0079         -DE/DX =    0.0                 !
 ! X3    R(3,-1)                -1.2375         -DE/DX =    0.0                 !
 ! Y3    R(3,-2)                -0.7004         -DE/DX =    0.0                 !
 ! Z3    R(3,-3)                -0.0643         -DE/DX =    0.0                 !
 ! X4    R(4,-1)                -0.0241         -DE/DX =    0.0                 !
 ! Y4    R(4,-2)                -1.4015         -DE/DX =    0.0                 !
 ! Z4    R(4,-3)                -0.0271         -DE/DX =    0.0                 !
 ! X5    R(5,-1)                 1.1976         -DE/DX =    0.0                 !
 ! Y5    R(5,-2)                -0.7102         -DE/DX =    0.0                 !
 ! Z5    R(5,-3)                 0.0173         -DE/DX =    0.0                 !
 ! X6    R(6,-1)                 1.2091         -DE/DX =    0.0                 !
 ! Y6    R(6,-2)                 0.7487         -DE/DX =    0.0                 !
 ! Z6    R(6,-3)                -0.0179         -DE/DX =    0.0                 !
 ! X7    R(7,-1)                 2.3744         -DE/DX =    0.0                 !
 ! Y7    R(7,-2)                 1.3994         -DE/DX =    0.0                 !
 ! Z7    R(7,-3)                 0.0261         -DE/DX =    0.0                 !
 ! X8    R(8,-1)                 2.3802         -DE/DX =    0.0                 !
 ! Y8    R(8,-2)                -1.4044         -DE/DX =    0.0                 !
 ! Z8    R(8,-3)                -0.003          -DE/DX =    0.0                 !
 ! X9    R(9,-1)                -2.1759         -DE/DX =    0.0                 !
 ! Y9    R(9,-2)                -1.2491         -DE/DX =    0.0                 !
 ! Z9    R(9,-3)                 0.0            -DE/DX =    0.0                 !
 ! X10   R(10,-1)               -2.1758         -DE/DX =    0.0                 !
 ! Y10   R(10,-2)                1.2492         -DE/DX =    0.0                 !
 ! Z10   R(10,-3)                0.0            -DE/DX =    0.0                 !
 ! X11   R(11,-1)                3.634          -DE/DX =    0.0                 !
 ! Y11   R(11,-2)               -0.0128         -DE/DX =    0.0                 !
 ! Z11   R(11,-3)               -0.0394         -DE/DX =    0.0                 !
 ! X12   R(12,-1)                0.0012         -DE/DX =    0.0                 !
 ! Y12   R(12,-2)                2.4871         -DE/DX =    0.0                 !
 ! Z12   R(12,-3)               -0.002          -DE/DX =    0.0                 !
 ! X13   R(13,-1)                0.0009         -DE/DX =    0.0                 !
 ! Y13   R(13,-2)               -2.4872         -DE/DX =    0.0                 !
 ! Z13   R(13,-3)                0.0653         -DE/DX =    0.0                 !
 ! R1    R(7,17)                 2.5596         -DE/DX =    0.0                 !
 ! R2    R(11,14)                2.2114         -DE/DX =    0.0                 !
 ! R3    R(11,15)                2.2894         -DE/DX =    0.0                 !
 ! R4    R(11,16)                2.2837         -DE/DX =    0.0                 !
 ! R5    R(11,17)                2.2098         -DE/DX =    0.0                 !
 ! R6    R(14,15)                0.7487         -DE/DX =    0.0001              !
 ! R7    R(14,16)                3.1888         -DE/DX =    0.0                 !
 ! R8    R(16,17)                0.7487         -DE/DX =    0.0001              !
 ! A1    A(6,7,17)             159.5945         -DE/DX =    0.0                 !
 ! A2    A(7,11,14)            173.7562         -DE/DX =    0.0                 !
 ! A3    A(7,11,15)            167.1666         -DE/DX =    0.0                 !
 ! A4    A(7,11,16)             95.8491         -DE/DX =    0.0                 !
 ! A5    A(8,11,14)             77.5643         -DE/DX =    0.0                 !
 ! A6    A(8,11,15)             96.6123         -DE/DX =    0.0                 !
 ! A7    A(8,11,16)            167.7344         -DE/DX =    0.0                 !
 ! A8    A(8,11,17)            172.6839         -DE/DX =    0.0                 !
 ! A9    A(14,11,17)           109.447          -DE/DX =    0.0                 !
 ! A10   A(15,11,16)            71.3178         -DE/DX =    0.0                 !
 ! A11   A(15,11,17)            90.407          -DE/DX =    0.0                 !
 ! A12   A(15,14,16)            40.6649         -DE/DX =    0.0                 !
 ! A13   A(14,16,17)           118.7744         -DE/DX =    0.0                 !
 ! A14   A(7,17,16)            132.0989         -DE/DX =    0.0                 !
 ! D1    D(1,6,7,17)          -178.3202         -DE/DX =    0.0                 !
 ! D2    D(5,6,7,17)             9.1114         -DE/DX =    0.0                 !
 ! D3    D(6,7,11,14)           -7.7741         -DE/DX =    0.0                 !
 ! D4    D(6,7,11,15)          178.8995         -DE/DX =    0.0                 !
 ! D5    D(6,7,11,16)          178.5474         -DE/DX =    0.0                 !
 ! D6    D(6,7,17,16)           -5.4956         -DE/DX =    0.0                 !
 ! D7    D(5,8,11,14)         -178.9742         -DE/DX =    0.0                 !
 ! D8    D(5,8,11,15)         -179.1051         -DE/DX =    0.0                 !
 ! D9    D(5,8,11,16)          170.8524         -DE/DX =    0.0                 !
 ! D10   D(5,8,11,17)           17.3489         -DE/DX =    0.0                 !
 ! D11   D(15,14,16,17)        177.3944         -DE/DX =    0.0                 !
 ! D12   D(14,16,17,7)           0.5533         -DE/DX =    0.0                 !
 --------------------------------------------------------------------------------
 GradGradGradGradGradGradGradGradGradGradGradGradGradGradGradGradGradGrad

                          Input orientation:                          
 ---------------------------------------------------------------------
 Center     Atomic      Atomic             Coordinates (Angstroms)
 Number     Number       Type             X           Y           Z
 ---------------------------------------------------------------------
      1          6           0       -0.032144    1.380417    0.053083
      2          6           0       -1.237492    0.700458   -0.007861
      3          6           0       -1.237524   -0.700373   -0.064287
      4          6           0       -0.024136   -1.401453   -0.027093
      5          6           0        1.197643   -0.710151    0.017265
      6          6           0        1.209086    0.748674   -0.017937
      7          8           0        2.374408    1.399358    0.026050
      8          8           0        2.380206   -1.404400   -0.003030
      9          1           0       -2.175863   -1.249095    0.000000
     10          1           0       -2.175827    1.249217   -0.000000
     11         12           0        3.633971   -0.012816   -0.039427
     12          1           0        0.001150    2.487129   -0.002033
     13          1           0        0.000938   -2.487226    0.065270
     14          1           0        4.918489   -1.812704   -0.098231
     15          1           0        5.498833   -1.340032   -0.109515
     16          1           0        5.485692    1.322656   -0.009523
     17          1           0        4.904583    1.794259    0.008571
 ---------------------------------------------------------------------
                    Distance matrix (angstroms):
                    1          2          3          4          5
     1  C    0.000000
     2  C    1.385252   0.000000
     3  C    2.407572   1.401967   0.000000
     4  C    2.783037   2.427063   1.401858   0.000000
     5  C    2.425724   2.814309   2.436552   1.404496   0.000000
     6  C    1.394560   2.447074   2.843903   2.478702   1.459294
     7  O    2.406779   3.679054   4.178886   3.687870   2.415550
     8  O    3.684805   4.185474   3.686106   2.404464   1.371440
     9  H    3.393034   2.163645   1.088903   2.157284   3.416329
    10  H    2.148350   1.087047   2.164589   3.414170   3.901247
    11  Mg   3.923017   4.923506   4.919839   3.912827   2.534795
    12  H    1.108583   2.174043   3.420286   3.888745   3.413879
    13  H    3.867804   3.420583   2.177939   1.089983   2.142989
    14  H    5.893020   6.649831   6.255791   4.960214   3.882480
    15  H    6.165954   7.039319   6.766810   5.523926   4.348914
    16  H    5.518493   6.751913   7.021202   6.146485   4.745564
    17  H    4.954242   6.238730   6.629779   5.874190   4.473650
                    6          7          8          9         10
     6  C    0.000000
     7  O    1.335403   0.000000
     8  O    2.451014   2.803914   0.000000
     9  H    3.930558   5.264974   4.558716   0.000000
    10  H    3.421769   4.552786   5.272488   2.498312   0.000000
    11  Mg   2.541731   1.893415   1.873435   5.940043   5.945421
    12  H    2.116977   2.610822   4.561130   4.324206   2.504328
    13  H    3.455082   4.554167   2.614975   2.505133   4.324763
    14  H    4.508522   4.099407   2.572675   7.117382   7.727504
    15  H    4.772107   4.157483   3.121108   7.676016   8.100408
    16  H    4.314960   3.112432   4.132906   8.081671   7.661877
    17  H    3.840657   2.560866   4.074804   7.706801   7.101362
                   11         12         13         14         15
    11  Mg   0.000000
    12  H    4.410047   0.000000
    13  H    4.396885   4.974810   0.000000
    14  H    2.212022   6.532843   4.966288   0.000000
    15  H    2.290006   6.699495   5.619026   0.748562   0.000000
    16  H    2.283254   5.606804   6.678571   3.187486   2.664597
    17  H    2.209587   4.952154   6.509997   3.608571   3.192313
                   16         17
    16  H    0.000000
    17  H    0.748615   0.000000
 Symmetry turned off by external request.
 Stoichiometry    C6H8MgO2
 Framework group  C1[X(C6H8MgO2)]
 Deg. of freedom    45
 Full point group                 C1      NOp   1
 Rotational constants (GHZ):           3.1633420           1.1120333           0.8231319


 IT PROBABLY IS NOT POSSIBLE FOR A SCIENTIST TO INTERROGATE NATURE 
 FROM A WHOLLY DISINTERESTED VIEWPOINT.
 EVEN IF HE HAS NO PARTICULAR AXE TO GRIND, HE IS LIKELY TO HAVE 
 A DISTINCTIVE WAY OF VIEWING NATURE.

                                                   -- JOHN LOSEE
 Error termination request processed by link 9999.
 Error termination via Lnk1e in /apps/applications/G16/g16.c01/l9999.exe at Thu Sep 12 19:16:40 2024.
 Job cpu time:       1 days 16 hours 28 minutes 39.5 seconds.
 Elapsed time:       0 days  5 hours  9 minutes  9.2 seconds.
 File lengths (MBytes):  RWF=     64 Int=      0 D2E=      0 Chk=     22 Scr=      1
