 Entering Gaussian System, Link 0=g16
 Input=one_3_frag.gjf
 Output=one_3_frag.log
 Initial command:
 /apps/applications/G16/g16.c01/l1.exe "/scratch/x2848a03/calculation/H2_COF/H2_cate_opt/Gau-25788.inp" -scrdir="/scratch/x2848a03/calculation/H2_COF/H2_cate_opt/"
 Default CPUs for threads: 5-9,25-29
 Default is to use a total of  10 processors:
                               10 via shared-memory
                                1 via Linda
 Entering Link 1 = /apps/applications/G16/g16.c01/l1.exe PID=     25789.
  
 Copyright (c) 1988-2019, Gaussian, Inc.  All Rights Reserved.
  
 This is part of the Gaussian(R) 16 program.  It is based on
 the Gaussian(R) 09 system (copyright 2009, Gaussian, Inc.),
 the Gaussian(R) 03 system (copyright 2003, Gaussian, Inc.),
 the Gaussian(R) 98 system (copyright 1998, Gaussian, Inc.),
 the Gaussian(R) 94 system (copyright 1995, Gaussian, Inc.),
 the Gaussian 92(TM) system (copyright 1992, Gaussian, Inc.),
 the Gaussian 90(TM) system (copyright 1990, Gaussian, Inc.),
 the Gaussian 88(TM) system (copyright 1988, Gaussian, Inc.),
 the Gaussian 86(TM) system (copyright 1986, Carnegie Mellon
 University), and the Gaussian 82(TM) system (copyright 1983,
 Carnegie Mellon University). Gaussian is a federally registered
 trademark of Gaussian, Inc.
  
 This software contains proprietary and confidential information,
 including trade secrets, belonging to Gaussian, Inc.
  
 This software is provided under written license and may be
 used, copied, transmitted, or stored only in accord with that
 written license.
  
 The following legend is applicable only to US Government
 contracts under FAR:
  
                    RESTRICTED RIGHTS LEGEND
  
 Use, reproduction and disclosure by the US Government is
 subject to restrictions as set forth in subparagraphs (a)
 and (c) of the Commercial Computer Software - Restricted
 Rights clause in FAR 52.227-19.
  
 Gaussian, Inc.
 340 Quinnipiac St., Bldg. 40, Wallingford CT 06492
  
  
 ---------------------------------------------------------------
 Warning -- This program may not be used in any manner that
 competes with the business of Gaussian, Inc. or will provide
 assistance to any competitor of Gaussian, Inc.  The licensee
 of this program is prohibited from giving any competitor of
 Gaussian, Inc. access to this program.  By using this program,
 the user acknowledges that Gaussian, Inc. is engaged in the
 business of creating and licensing software in the field of
 computational chemistry and represents and warrants to the
 licensee that it is not a competitor of Gaussian, Inc. and that
 it will not use this program in any manner prohibited above.
 ---------------------------------------------------------------
  

 Cite this work as:
 Gaussian 16, Revision C.01,
 M. J. Frisch, G. W. Trucks, H. B. Schlegel, G. E. Scuseria, 
 M. A. Robb, J. R. Cheeseman, G. Scalmani, V. Barone, 
 G. A. Petersson, H. Nakatsuji, X. Li, M. Caricato, A. V. Marenich, 
 J. Bloino, B. G. Janesko, R. Gomperts, B. Mennucci, H. P. Hratchian, 
 J. V. Ortiz, A. F. Izmaylov, J. L. Sonnenberg, D. Williams-Young, 
 F. Ding, F. Lipparini, F. Egidi, J. Goings, B. Peng, A. Petrone, 
 T. Henderson, D. Ranasinghe, V. G. Zakrzewski, J. Gao, N. Rega, 
 G. Zheng, W. Liang, M. Hada, M. Ehara, K. Toyota, R. Fukuda, 
 J. Hasegawa, M. Ishida, T. Nakajima, Y. Honda, O. Kitao, H. Nakai, 
 T. Vreven, K. Throssell, J. A. Montgomery, Jr., J. E. Peralta, 
 F. Ogliaro, M. J. Bearpark, J. J. Heyd, E. N. Brothers, K. N. Kudin, 
 V. N. Staroverov, T. A. Keith, R. Kobayashi, J. Normand, 
 K. Raghavachari, A. P. Rendell, J. C. Burant, S. S. Iyengar, 
 J. Tomasi, M. Cossi, J. M. Millam, M. Klene, C. Adamo, R. Cammi, 
 J. W. Ochterski, R. L. Martin, K. Morokuma, O. Farkas, 
 J. B. Foresman, and D. J. Fox, Gaussian, Inc., Wallingford CT, 2019.
 
 ******************************************
 Gaussian 16:  ES64L-G16RevC.01  3-Jul-2019
                12-Sep-2024 
 ******************************************
 SetSPE:  set environment variable "MP_BIND" = "yes"
 SetSPE:  set environment variable "MP_BLIST" = "5,6,7,8,9,25,26,27,28,29"
 Will use    1 GPUs:
 Thread  CPU   GPU
      0    5     0
      1    6    -1
      2    7    -1
      3    8    -1
      4    9    -1
      5   25    -1
      6   26    -1
      7   27    -1
      8   28    -1
      9   29    -1
 SetGPE:  set environment variable "MP_BIND" = "yes"
 SetGPE:  set environment variable "MP_BLIST" = "5,6,7,8,9,25,26,27,28,29"
 Properties for Device   0
 Minimum vector length:                              32
 Maximum vector length:                            1024
 Number of SMPs:                                     80
 Maximum number of threads per SMP:                2048
 Number of ASync Engines:                             7
 Memory:                                           3193987072
   2874588364 words of memory will be used on each GPU.
 -------------------------------------------------
 # opt freq MP2/6-311+g(d,p) nosymm counterpoise=3
 -------------------------------------------------
 1/18=20,19=15,38=1,62=3/1,3;
 2/9=110,12=2,15=1,17=6,18=5,40=1/2;
 1/18=20,19=15,38=1,53=2,62=3,63=101/22;
 3/5=4,6=6,7=111,11=9,25=1,30=1,71=1/1,2,3;
 4//1;
 5/5=2,38=5/2;
 8/6=4,10=2/1;
 9/15=2,16=-3/6;
 10/5=1,31=1/2;
 6/7=2,8=2,9=2,10=2/1;
 7/7=1,12=2,30=1,33=-1/1,2,3,16;
 1/18=20,19=15,53=2,62=3,63=101/22;
 3/5=7,6=11,7=111,11=9,25=1,30=1,71=1,82=7/1,2,3;
 4//1;
 5/5=2,38=5/2;
 8/6=4,10=2/1;
 9/15=2,16=-3/6;
 10/5=1,31=1/2;
 6/7=2,8=2,9=2,10=2/1;
 7/7=1,12=2,30=1,33=-1/1,2,3,16;
 1/18=20,19=15,53=2,62=3,63=101/22(-8);
 7/9=1,44=-1,126=2/16;
 1/18=20,19=15,62=3/3(2);
 2/9=110,15=1/2;
 99//99;
 2/9=110,15=1/2;
 1/18=20,19=15,53=3,62=3,63=101/22;
 3/5=7,6=11,7=111,11=9,25=1,30=1,71=1,82=7/1,2,3;
 4/5=5,16=3,69=1/1;
 5/5=2,38=5/2;
 8/6=4,10=2/1;
 9/15=2,16=-3/6;
 10/5=1,31=1/2;
 7/7=1,12=2,30=1,33=-1/1,2,3,16;
 1/18=20,19=15,53=3,62=3,63=101/22(-7);
 7/9=1,44=-1,126=2/16;
 1/18=20,19=15,62=3/3(-11);
 2/9=110,15=1/2;
 99/9=10/99;
 ----------
 one_3_frag
 ----------
 Symbolic Z-matrix:
 Charge =  0 Multiplicity = 1 in supermolecule
 Charge =  0 Multiplicity = 1 in fragment      1.
 Charge =  0 Multiplicity = 1 in fragment      2.
 Charge =  0 Multiplicity = 1 in fragment      3.
 C(Fragment=1)        -1   -0.0246    1.40007   0. 
 C(Fragment=1)        -1   -1.23749   0.70046   0. 
 C(Fragment=1)        -1   -1.23752  -0.70037   0. 
 C(Fragment=1)        -1   -0.02464  -1.40013   0. 
 C(Fragment=1)        -1    1.20009  -0.71843   0. 
 C(Fragment=1)        -1    1.20005   0.71823   0. 
 O(Fragment=1)        -1    2.38325   1.407     0. 
 O(Fragment=1)        -1    2.38332  -1.40713   0. 
 H(Fragment=1)        -1   -2.17586  -1.2491    0. 
 H(Fragment=1)        -1   -2.17583   1.24922   0. 
 Mg(Fragment=1)       -1    3.62158  -0.00001   0. 
 H(Fragment=1)        -1    0.00115   2.48713   0. 
 H(Fragment=1)        -1    0.00093  -2.48721   0. 
 H(Fragment=2)        0     5.80065   0.01608   0.41854 
 H(Fragment=2)        0     5.81733  -0.01734  -0.32775 
 H(Fragment=3)        0     1.82556   0.00109   2.7085 
 H(Fragment=3)        0     2.32677  -0.00333   3.25496 
 
 Add virtual bond connecting atoms H14        and Mg11       Dist= 4.19D+00.
 Add virtual bond connecting atoms H15        and Mg11       Dist= 4.20D+00.
 Add virtual bond connecting atoms H16        and C5         Dist= 5.43D+00.
 Add virtual bond connecting atoms H16        and C6         Dist= 5.43D+00.

 GradGradGradGradGradGradGradGradGradGradGradGradGradGradGradGradGradGrad
 Berny optimization.
 Initialization pass.
                           ----------------------------
                           !    Initial Parameters    !
                           ! (Angstroms and Degrees)  !
 --------------------------                            --------------------------
 ! Name  Definition              Value          Derivative Info.                !
 --------------------------------------------------------------------------------
 ! X1    R(1,-1)                -0.0246         Frozen                          !
 ! Y1    R(1,-2)                 1.4001         Frozen                          !
 ! Z1    R(1,-3)                 0.0            Frozen                          !
 ! X2    R(2,-1)                -1.2375         Frozen                          !
 ! Y2    R(2,-2)                 0.7005         Frozen                          !
 ! Z2    R(2,-3)                 0.0            Frozen                          !
 ! X3    R(3,-1)                -1.2375         Frozen                          !
 ! Y3    R(3,-2)                -0.7004         Frozen                          !
 ! Z3    R(3,-3)                 0.0            Frozen                          !
 ! X4    R(4,-1)                -0.0246         Frozen                          !
 ! Y4    R(4,-2)                -1.4001         Frozen                          !
 ! Z4    R(4,-3)                 0.0            Frozen                          !
 ! X5    R(5,-1)                 1.2001         Frozen                          !
 ! Y5    R(5,-2)                -0.7184         Frozen                          !
 ! Z5    R(5,-3)                 0.0            Frozen                          !
 ! X6    R(6,-1)                 1.2            Frozen                          !
 ! Y6    R(6,-2)                 0.7182         Frozen                          !
 ! Z6    R(6,-3)                 0.0            Frozen                          !
 ! X7    R(7,-1)                 2.3832         Frozen                          !
 ! Y7    R(7,-2)                 1.407          Frozen                          !
 ! Z7    R(7,-3)                 0.0            Frozen                          !
 ! X8    R(8,-1)                 2.3833         Frozen                          !
 ! Y8    R(8,-2)                -1.4071         Frozen                          !
 ! Z8    R(8,-3)                 0.0            Frozen                          !
 ! X9    R(9,-1)                -2.1759         Frozen                          !
 ! Y9    R(9,-2)                -1.2491         Frozen                          !
 ! Z9    R(9,-3)                 0.0            Frozen                          !
 ! X10   R(10,-1)               -2.1758         Frozen                          !
 ! Y10   R(10,-2)                1.2492         Frozen                          !
 ! Z10   R(10,-3)                0.0            Frozen                          !
 ! X11   R(11,-1)                3.6216         Frozen                          !
 ! Y11   R(11,-2)                0.0            Frozen                          !
 ! Z11   R(11,-3)                0.0            Frozen                          !
 ! X12   R(12,-1)                0.0011         Frozen                          !
 ! Y12   R(12,-2)                2.4871         Frozen                          !
 ! Z12   R(12,-3)                0.0            Frozen                          !
 ! X13   R(13,-1)                0.0009         Frozen                          !
 ! Y13   R(13,-2)               -2.4872         Frozen                          !
 ! Z13   R(13,-3)                0.0            Frozen                          !
 ! R1    R(5,16)                 2.8714         estimate D2E/DX2                !
 ! R2    R(6,16)                 2.8708         estimate D2E/DX2                !
 ! R3    R(11,14)                2.219          estimate D2E/DX2                !
 ! R4    R(11,15)                2.2201         estimate D2E/DX2                !
 ! R5    R(14,15)                0.7472         estimate D2E/DX2                !
 ! R6    R(16,17)                0.7415         estimate D2E/DX2                !
 ! A1    A(4,5,16)             108.1919         estimate D2E/DX2                !
 ! A2    A(8,5,16)              86.4335         estimate D2E/DX2                !
 ! A3    A(11,5,16)             73.7336         estimate D2E/DX2                !
 ! A4    A(1,6,16)             108.1731         estimate D2E/DX2                !
 ! A5    A(7,6,16)              86.4091         estimate D2E/DX2                !
 ! A6    A(11,6,16)             73.7441         estimate D2E/DX2                !
 ! A7    A(5,11,14)            160.6522         estimate D2E/DX2                !
 ! A8    A(5,11,15)            161.075          estimate D2E/DX2                !
 ! A9    A(6,11,14)            159.9545         estimate D2E/DX2                !
 ! A10   A(6,11,15)            161.8791         estimate D2E/DX2                !
 ! A11   A(7,11,14)            130.0425         estimate D2E/DX2                !
 ! A12   A(7,11,15)            131.2446         estimate D2E/DX2                !
 ! A13   A(8,11,14)            130.8586         estimate D2E/DX2                !
 ! A14   A(8,11,15)            130.3541         estimate D2E/DX2                !
 ! A15   A(5,16,17)            147.2335         estimate D2E/DX2                !
 ! A16   A(6,16,17)            147.5701         estimate D2E/DX2                !
 ! D1    D(2,1,6,16)           -83.2142         estimate D2E/DX2                !
 ! D2    D(12,1,6,16)           96.7858         estimate D2E/DX2                !
 ! D3    D(3,4,5,16)            83.1683         estimate D2E/DX2                !
 ! D4    D(13,4,5,16)          -96.8317         estimate D2E/DX2                !
 ! D5    D(16,5,11,7)          -79.2976         estimate D2E/DX2                !
 ! D6    D(16,5,11,14)          65.9987         estimate D2E/DX2                !
 ! D7    D(16,5,11,15)         127.7781         estimate D2E/DX2                !
 ! D8    D(4,5,16,17)          129.2299         estimate D2E/DX2                !
 ! D9    D(8,5,16,17)            8.0367         estimate D2E/DX2                !
 ! D10   D(11,5,16,17)         -37.7552         estimate D2E/DX2                !
 ! D11   D(16,6,11,8)           79.3432         estimate D2E/DX2                !
 ! D12   D(16,6,11,14)         -67.27           estimate D2E/DX2                !
 ! D13   D(16,6,11,15)        -128.9929         estimate D2E/DX2                !
 ! D14   D(1,6,16,17)         -130.3972         estimate D2E/DX2                !
 ! D15   D(7,6,16,17)           -9.2253         estimate D2E/DX2                !
 ! D16   D(11,6,16,17)          36.576          estimate D2E/DX2                !
 --------------------------------------------------------------------------------
 Trust Radius=3.00D-01 FncErr=1.00D-07 GrdErr=1.00D-07 EigMax=2.50D+02 EigMin=1.00D-04
 Number of steps in this run=     87 maximum allowed number of steps=    102.
 GradGradGradGradGradGradGradGradGradGradGradGradGradGradGradGradGradGrad

                          Input orientation:                          
 ---------------------------------------------------------------------
 Center     Atomic      Atomic             Coordinates (Angstroms)
 Number     Number       Type             X           Y           Z
 ---------------------------------------------------------------------
      1          6           0       -0.024595    1.400072    0.000000
      2          6           0       -1.237492    0.700460    0.000000
      3          6           0       -1.237520   -0.700370    0.000000
      4          6           0       -0.024642   -1.400130    0.000000
      5          6           0        1.200092   -0.718427    0.000000
      6          6           0        1.200046    0.718230    0.000000
      7          8           0        2.383247    1.407001    0.000000
      8          8           0        2.383318   -1.407126    0.000000
      9          1           0       -2.175863   -1.249095    0.000000
     10          1           0       -2.175827    1.249217    0.000000
     11         12           0        3.621576   -0.000011    0.000000
     12          1           0        0.001149    2.487128    0.000000
     13          1           0        0.000927   -2.487210    0.000000
     14          1           0        5.800652    0.016079    0.418543
     15          1           0        5.817330   -0.017336   -0.327749
     16          1           0        1.825563    0.001089    2.708501
     17          1           0        2.326769   -0.003331    3.254957
 ---------------------------------------------------------------------
                    Distance matrix (angstroms):
                    1          2          3          4          5
     1  C    0.000000
     2  C    1.400206   0.000000
     3  C    2.425499   1.400830   0.000000
     4  C    2.800202   2.425589   1.400263   0.000000
     5  C    2.447018   2.820471   2.437679   1.401675   0.000000
     6  C    1.401661   2.437603   2.820311   2.446898   1.436657
     7  O    2.407852   3.689031   4.189387   3.698366   2.432550
     8  O    3.698433   4.189533   3.689170   2.407970   1.369062
     9  H    3.412629   2.163632   1.087008   2.156516   3.417408
    10  H    2.156515   1.087017   2.163633   3.412717   3.907487
    11  Mg   3.905739   4.909297   4.909309   3.905796   2.525808
    12  H    1.087361   2.174032   3.419714   3.887344   3.422433
    13  H    3.887366   3.419784   2.174063   1.087381   2.136958
    14  H    6.002009   7.083716   7.086913   6.009565   4.677588
    15  H    6.020345   7.098814   7.095411   6.012335   4.681649
    16  H    3.565980   4.148181   4.148554   3.566883   2.871393
    17  H    4.253610   4.877912   4.876963   4.251462   3.517884
                    6          7          8          9         10
     6  C    0.000000
     7  O    1.369076   0.000000
     8  O    2.432544   2.814127   0.000000
     9  H    3.907317   5.276394   4.561919   0.000000
    10  H    3.417377   4.561804   5.276548   2.498312   0.000000
    11  Mg   2.525802   1.874338   1.874368   5.930473   5.930468
    12  H    2.136903   2.615543   4.565079   4.324204   2.504326
    13  H    3.422387   4.565121   2.615792   2.504265   4.324251
    14  H    4.672662   3.713287   3.725435   8.087066   8.082080
    15  H    4.686981   3.732168   3.719056   8.094182   8.099514
    16  H    2.870808   3.102189   3.103246   4.991027   4.990483
    17  H    3.519219   3.547812   3.545220   5.693889   5.695348
                   11         12         13         14         15
    11  Mg   0.000000
    12  H    4.392420   0.000000
    13  H    4.392637   4.974338   0.000000
    14  H    2.218966   6.317871   6.330754   0.000000
    15  H    2.220148   6.340956   6.327578   0.747226   0.000000
    16  H    3.249868   4.104248   4.105716   4.587534   5.015312
    17  H    3.503039   4.712286   4.708921   4.484806   5.001999
                   16         17
    16  H    0.000000
    17  H    0.741513   0.000000
 Symmetry turned off by external request.
 Stoichiometry    C6H8MgO2
 Framework group  C1[X(C6H8MgO2)]
 Deg. of freedom    45
 Full point group                 C1      NOp   1
 Rotational constants (GHZ):           3.0052349           1.1187088           0.8655335
 Counterpoise: doing full-system calculation.
 Standard basis: 6-311+G(d,p) (5D, 7F)
   254 basis functions,   402 primitive gaussians,   263 cartesian basis functions
    36 alpha electrons       36 beta electrons
       nuclear repulsion energy       486.5878634923 Hartrees.
 NAtoms=   17 NActive=   17 NUniq=   17 SFac= 1.00D+00 NAtFMM=   60 NAOKFM=F Big=F
 Integral buffers will be    131072 words long.
 Raffenetti 1 integral format.
 Two-electron integral symmetry is turned off.
 One-electron integrals computed using PRISM.
 NBasis=   254 RedAO= T EigKep=  1.60D-06  NBF=   254
 NBsUse=   254 1.00D-06 EigRej= -1.00D+00 NBFU=   254
 ExpMin= 1.46D-02 ExpMax= 4.39D+04 ExpMxC= 1.51D+03 IAcc=3 IRadAn=         5 AccDes= 0.00D+00
 Harris functional with IExCor=  205 and IRadAn=       5 diagonalized for initial guess.
 HarFok:  IExCor=  205 AccDes= 0.00D+00 IRadAn=         5 IDoV= 1 UseB2=F ITyADJ=14
 ICtDFT=  3500011 ScaDFX=  1.000000  1.000000  1.000000  1.000000
 FoFCou: FMM=F IPFlag=           0 FMFlag=      100000 FMFlg1=           0
         NFxFlg=           0 DoJE=T BraDBF=F KetDBF=T FulRan=T
         wScrn=  0.000000 ICntrl=       500 IOpCl=  0 I1Cent=   200000004 NGrid=           0
         NMat0=    1 NMatS0=      1 NMatT0=    0 NMatD0=    1 NMtDS0=    0 NMtDT0=    0
 Symmetry not used in FoFCou.
 Requested convergence on RMS density matrix=1.00D-08 within 128 cycles.
 Requested convergence on MAX density matrix=1.00D-06.
 Requested convergence on             energy=1.00D-06.
 No special actions if energy rises.
 SCF Done:  E(RHF) =  -581.258333223     A.U. after   16 cycles
            NFock= 16  Conv=0.52D-08     -V/T= 2.0013
 ExpMin= 1.46D-02 ExpMax= 4.39D+04 ExpMxC= 1.51D+03 IAcc=3 IRadAn=         5 AccDes= 0.00D+00
 HarFok:  IExCor=  205 AccDes= 0.00D+00 IRadAn=         5 IDoV=-2 UseB2=F ITyADJ=14
 ICtDFT= 12500011 ScaDFX=  1.000000  1.000000  1.000000  1.000000
 Range of M.O.s used for correlation:    14   254
 NBasis=   254 NAE=    36 NBE=    36 NFC=    13 NFV=     0
 NROrb=    241 NOA=    23 NOB=    23 NVA=   218 NVB=   218

 **** Warning!!: The largest alpha MO coefficient is  0.20252857D+03

 Fully direct method using O(ONN) memory.
 JobTyp=1 Pass  1:  I=  14 to  36 NPSUse= 10 ParTrn=T ParDer=T DoDerP=T.
 Spin components of T(2) and E(2):
     alpha-alpha T2 =       0.6120426230D-01 E2=     -0.1721290810D+00
     alpha-beta  T2 =       0.3237375189D+00 E2=     -0.9640702853D+00
     beta-beta   T2 =       0.6120426230D-01 E2=     -0.1721290810D+00
 ANorm=    0.1202558125D+01
 E2 =    -0.1308328447D+01 EUMP2 =    -0.58256666167041D+03
          IDoAtm=00000000000001111
          Differentiating once with respect to electric field.
                with respect to dipole field.
          Differentiating once with respect to nuclear coordinates.
 Keep R1 ints in memory in canonical form, NReq=533613751.
          There are     1 degrees of freedom in the 1st order CPHF.  IDoFFX=0 NUNeed=     1.
 LinEq1:  Iter=  0 NonCon=     1 RMS=3.92D-03 Max=7.65D-02 NDo=     1
 AX will form     1 AO Fock derivatives at one time.
 LinEq1:  Iter=  1 NonCon=     1 RMS=9.72D-04 Max=1.83D-02 NDo=     1
 LinEq1:  Iter=  2 NonCon=     1 RMS=4.03D-04 Max=8.35D-03 NDo=     1
 LinEq1:  Iter=  3 NonCon=     1 RMS=1.30D-04 Max=1.93D-03 NDo=     1
 LinEq1:  Iter=  4 NonCon=     1 RMS=5.21D-05 Max=1.28D-03 NDo=     1
 LinEq1:  Iter=  5 NonCon=     1 RMS=1.34D-05 Max=3.05D-04 NDo=     1
 LinEq1:  Iter=  6 NonCon=     1 RMS=3.82D-06 Max=1.31D-04 NDo=     1
 LinEq1:  Iter=  7 NonCon=     1 RMS=1.84D-06 Max=7.59D-05 NDo=     1
 LinEq1:  Iter=  8 NonCon=     1 RMS=6.22D-07 Max=1.46D-05 NDo=     1
 LinEq1:  Iter=  9 NonCon=     1 RMS=1.82D-07 Max=4.68D-06 NDo=     1
 LinEq1:  Iter= 10 NonCon=     1 RMS=7.74D-08 Max=1.85D-06 NDo=     1
 LinEq1:  Iter= 11 NonCon=     1 RMS=2.06D-08 Max=2.78D-07 NDo=     1
 LinEq1:  Iter= 12 NonCon=     1 RMS=4.41D-09 Max=1.02D-07 NDo=     1
 LinEq1:  Iter= 13 NonCon=     1 RMS=8.94D-10 Max=3.40D-08 NDo=     1
 LinEq1:  Iter= 14 NonCon=     1 RMS=2.50D-10 Max=7.43D-09 NDo=     1
 LinEq1:  Iter= 15 NonCon=     1 RMS=7.24D-11 Max=1.52D-09 NDo=     1
 LinEq1:  Iter= 16 NonCon=     0 RMS=1.65D-11 Max=2.68D-10 NDo=     1
 Linear equations converged to 1.000D-10 1.000D-09 after    16 iterations.
 End of Minotr F.D. properties file   721 does not exist.
 End of Minotr F.D. properties file   722 does not exist.
 End of Minotr F.D. properties file   788 does not exist.

 **********************************************************************

            Population analysis using the SCF Density.

 **********************************************************************

 Alpha  occ. eigenvalues --  -49.08649 -20.50163 -20.50162 -11.25594 -11.25495
 Alpha  occ. eigenvalues --  -11.19860 -11.19748 -11.19488 -11.19484  -3.81858
 Alpha  occ. eigenvalues --   -2.34175  -2.34145  -2.33979  -1.31205  -1.27457
 Alpha  occ. eigenvalues --   -1.09075  -0.96565  -0.93966  -0.79015  -0.76474
 Alpha  occ. eigenvalues --   -0.75769  -0.65013  -0.62990  -0.60688  -0.59089
 Alpha  occ. eigenvalues --   -0.56017  -0.55056  -0.54000  -0.49495  -0.49337
 Alpha  occ. eigenvalues --   -0.47491  -0.44618  -0.42145  -0.41710  -0.28692
 Alpha  occ. eigenvalues --   -0.25073
 Alpha virt. eigenvalues --    0.00057   0.00561   0.02249   0.02442   0.04752
 Alpha virt. eigenvalues --    0.05619   0.06826   0.09983   0.10337   0.10916
 Alpha virt. eigenvalues --    0.12517   0.13661   0.14156   0.14599   0.15999
 Alpha virt. eigenvalues --    0.16109   0.16680   0.16988   0.17642   0.18199
 Alpha virt. eigenvalues --    0.19251   0.20473   0.20685   0.21036   0.21633
 Alpha virt. eigenvalues --    0.23288   0.24117   0.24379   0.24596   0.25163
 Alpha virt. eigenvalues --    0.25904   0.26395   0.27748   0.28799   0.29103
 Alpha virt. eigenvalues --    0.30832   0.31245   0.32508   0.32992   0.34093
 Alpha virt. eigenvalues --    0.36771   0.37208   0.37646   0.37875   0.38679
 Alpha virt. eigenvalues --    0.38879   0.40115   0.43201   0.44139   0.44538
 Alpha virt. eigenvalues --    0.46661   0.47446   0.47691   0.48322   0.50684
 Alpha virt. eigenvalues --    0.53795   0.54222   0.54522   0.54963   0.56020
 Alpha virt. eigenvalues --    0.58215   0.58425   0.59966   0.63045   0.65632
 Alpha virt. eigenvalues --    0.65923   0.71454   0.72258   0.74236   0.75628
 Alpha virt. eigenvalues --    0.76246   0.76384   0.77059   0.79169   0.79957
 Alpha virt. eigenvalues --    0.82382   0.83177   0.83391   0.86670   0.87113
 Alpha virt. eigenvalues --    0.89093   0.89832   0.92826   0.93959   0.95447
 Alpha virt. eigenvalues --    0.96835   0.98375   1.02186   1.03027   1.04157
 Alpha virt. eigenvalues --    1.05841   1.10456   1.11703   1.13675   1.16494
 Alpha virt. eigenvalues --    1.17793   1.21334   1.21936   1.27016   1.27303
 Alpha virt. eigenvalues --    1.29046   1.29651   1.32108   1.36982   1.37432
 Alpha virt. eigenvalues --    1.40435   1.41223   1.42915   1.43287   1.46710
 Alpha virt. eigenvalues --    1.51392   1.53609   1.54683   1.55990   1.58261
 Alpha virt. eigenvalues --    1.65080   1.71055   1.71436   1.75395   1.80023
 Alpha virt. eigenvalues --    1.83437   1.84020   1.86547   1.86724   1.91613
 Alpha virt. eigenvalues --    1.93233   1.94993   1.95131   1.96746   1.99235
 Alpha virt. eigenvalues --    2.01977   2.02739   2.05463   2.09688   2.11307
 Alpha virt. eigenvalues --    2.12714   2.15486   2.17937   2.18618   2.21174
 Alpha virt. eigenvalues --    2.21364   2.23267   2.26705   2.28670   2.29806
 Alpha virt. eigenvalues --    2.29956   2.34650   2.36952   2.37920   2.38376
 Alpha virt. eigenvalues --    2.50269   2.56520   2.58265   2.65491   2.66591
 Alpha virt. eigenvalues --    2.79108   2.80291   2.80738   2.90450   2.93492
 Alpha virt. eigenvalues --    2.94451   3.03047   3.05400   3.07808   3.09080
 Alpha virt. eigenvalues --    3.09891   3.11694   3.17834   3.18556   3.19468
 Alpha virt. eigenvalues --    3.23252   3.29820   3.30039   3.34092   3.35910
 Alpha virt. eigenvalues --    3.43578   3.46386   3.50678   3.51104   3.51182
 Alpha virt. eigenvalues --    3.58531   3.61153   3.61775   3.66164   3.69690
 Alpha virt. eigenvalues --    3.70636   3.82859   3.84174   3.88040   3.94148
 Alpha virt. eigenvalues --    3.96881   3.99304   4.07795   4.18178   4.47626
 Alpha virt. eigenvalues --    4.49985   4.60482   4.68748   4.68870   5.29387
 Alpha virt. eigenvalues --    5.64942   5.68348   5.78282   5.90239   6.21155
 Alpha virt. eigenvalues --    6.36069   6.40989   6.64081   6.71996  24.78350
 Alpha virt. eigenvalues --   25.06577  25.11804  25.21621  25.27438  25.36685
 Alpha virt. eigenvalues --   51.71242  51.77409 105.78995
          Condensed to atoms (all electrons):
               1          2          3          4          5          6
     1  C   23.085240  -0.589523   1.321542  -7.254583 -10.521990   0.866314
     2  C   -0.589523   5.689945   0.290469   1.321877  -0.707146  -0.239526
     3  C    1.321542   0.290469   5.688175  -0.587964  -0.238702  -0.706527
     4  C   -7.254583   1.321877  -0.587964  23.077033   0.870383 -10.519230
     5  C  -10.521990  -0.707146  -0.238702   0.870383  22.265187  -6.679184
     6  C    0.866314  -0.239526  -0.706527 -10.519230  -6.679184  22.264561
     7  O   -1.100809   0.043297  -0.033784   0.266094   0.463238   0.361947
     8  O    0.265955  -0.033713   0.043234  -1.100577   0.361961   0.463086
     9  H   -0.031735   0.007778   0.398878  -0.033949   0.005011   0.020302
    10  H   -0.034070   0.399004   0.007701  -0.031662   0.020216   0.005103
    11  Mg   0.111016  -0.010193  -0.010173   0.111009  -0.155648  -0.156322
    12  H    0.317818  -0.010573  -0.004307  -0.006640   0.027487   0.047533
    13  H   -0.006608  -0.004308  -0.010643   0.317863   0.047452   0.027560
    14  H    0.000099   0.000187   0.000184   0.000142  -0.001874  -0.001952
    15  H    0.000368   0.000175   0.000173   0.000400  -0.001819  -0.001879
    16  H    0.065624   0.004391   0.003981   0.065495  -0.076582  -0.074971
    17  H    0.029770   0.003237   0.003051   0.029709  -0.039146  -0.038006
               7          8          9         10         11         12
     1  C   -1.100809   0.265955  -0.031735  -0.034070   0.111016   0.317818
     2  C    0.043297  -0.033713   0.007778   0.399004  -0.010193  -0.010573
     3  C   -0.033784   0.043234   0.398878   0.007701  -0.010173  -0.004307
     4  C    0.266094  -1.100577  -0.033949  -0.031662   0.111009  -0.006640
     5  C    0.463238   0.361961   0.005011   0.020216  -0.155648   0.027487
     6  C    0.361947   0.463086   0.020302   0.005103  -0.156322   0.047533
     7  O    8.306874  -0.001475   0.000061  -0.000401   0.196116  -0.004324
     8  O   -0.001475   8.306983  -0.000400   0.000062   0.196007  -0.000260
     9  H    0.000061  -0.000400   0.522188  -0.005043   0.000412  -0.000140
    10  H   -0.000401   0.000062  -0.005043   0.522181   0.000411  -0.004908
    11  Mg   0.196116   0.196007   0.000412   0.000411  10.574980   0.001453
    12  H   -0.004324  -0.000260  -0.000140  -0.004908   0.001453   0.509598
    13  H   -0.000261  -0.004311  -0.004911  -0.000140   0.001458   0.000019
    14  H    0.002970   0.002943  -0.000000  -0.000000   0.040295   0.000000
    15  H    0.002889   0.002921  -0.000000  -0.000000   0.041365  -0.000000
    16  H   -0.001816  -0.001730  -0.000021  -0.000022  -0.001027  -0.000122
    17  H    0.000748   0.000800  -0.000001  -0.000001   0.000714  -0.000012
              13         14         15         16         17
     1  C   -0.006608   0.000099   0.000368   0.065624   0.029770
     2  C   -0.004308   0.000187   0.000175   0.004391   0.003237
     3  C   -0.010643   0.000184   0.000173   0.003981   0.003051
     4  C    0.317863   0.000142   0.000400   0.065495   0.029709
     5  C    0.047452  -0.001874  -0.001819  -0.076582  -0.039146
     6  C    0.027560  -0.001952  -0.001879  -0.074971  -0.038006
     7  O   -0.000261   0.002970   0.002889  -0.001816   0.000748
     8  O   -0.004311   0.002943   0.002921  -0.001730   0.000800
     9  H   -0.004911  -0.000000  -0.000000  -0.000021  -0.000001
    10  H   -0.000140  -0.000000  -0.000000  -0.000022  -0.000001
    11  Mg   0.001458   0.040295   0.041365  -0.001027   0.000714
    12  H    0.000019   0.000000  -0.000000  -0.000122  -0.000012
    13  H    0.509593   0.000000  -0.000000  -0.000121  -0.000012
    14  H    0.000000   0.526999   0.370493  -0.000067  -0.000040
    15  H   -0.000000   0.370493   0.529123   0.000022   0.000024
    16  H   -0.000121  -0.000067   0.000022   0.574934   0.426650
    17  H   -0.000012  -0.000040   0.000024   0.426650   0.608278
 Mulliken charges:
               1
     1  C   -0.524429
     2  C   -0.165378
     3  C   -0.165287
     4  C   -0.525399
     5  C    0.361154
     6  C    0.361190
     7  O   -0.501363
     8  O   -0.501486
     9  H    0.121570
    10  H    0.121570
    11  Mg   1.058125
    12  H    0.127378
    13  H    0.127370
    14  H    0.059622
    15  H    0.055745
    16  H    0.015383
    17  H   -0.025764
 Sum of Mulliken charges =  -0.00000
 Mulliken charges with hydrogens summed into heavy atoms:
               1
     1  C   -0.397052
     2  C   -0.043808
     3  C   -0.043717
     4  C   -0.398029
     5  C    0.361154
     6  C    0.376574
     7  O   -0.501363
     8  O   -0.501486
    11  Mg   1.147727
         Mulliken charges condensed to fragments:
      1     -0.104986
      2      0.115367
      3     -0.010381
 Electronic spatial extent (au):  <R**2>=           1771.8938
 Charge=             -0.0000 electrons
 Dipole moment (field-independent basis, Debye):
    X=              9.6923    Y=              0.0001    Z=             -0.1255  Tot=              9.6932
 Quadrupole moment (field-independent basis, Debye-Ang):
   XX=              5.8616   YY=            -67.9582   ZZ=            -60.6440
   XY=             -0.0030   XZ=             -0.2708   YZ=              0.0258
 Traceless Quadrupole moment (field-independent basis, Debye-Ang):
   XX=             46.7752   YY=            -27.0447   ZZ=            -19.7305
   XY=             -0.0030   XZ=             -0.2708   YZ=              0.0258
 Octapole moment (field-independent basis, Debye-Ang**2):
  XXX=            147.8954  YYY=              0.0176  ZZZ=            -18.6068  XYY=            -96.9427
  XXY=             -0.0168  XXZ=             -5.9667  XZZ=            -51.0944  YZZ=             -0.0046
  YYZ=             -6.3420  XYZ=              0.1548
 Hexadecapole moment (field-independent basis, Debye-Ang**3):
 XXXX=            134.0392 YYYY=           -473.6006 ZZZZ=           -177.4610 XXXY=             -0.0966
 XXXZ=            -34.8567 YYYX=              0.0564 YYYZ=              0.0003 ZZZX=            -35.5594
 ZZZY=             -0.0540 XXYY=           -421.5978 XXZZ=           -258.6177 YYZZ=           -117.4827
 XXYZ=              0.9392 YYXZ=            -13.6601 ZZXY=             -0.0182
 N-N= 4.865878634923D+02 E-N=-2.349122013376D+03  KE= 5.805044568945D+02
 Calling FoFJK, ICntrl=  10002127 FMM=F ISym2X=0 I1Cent= 0 IOpClX= 0 NMat=1 NMatS=1 NMatT=0.
 Cartesian Forces:  Max     0.000924146 RMS     0.000213045
 CPIOFr:  IOpCl= 0 IRwI=-1 IRwCP=  731 ICalc= -1 LCPTot=      101349 Len1MO=      263944 IndFrg=      101349
 CPIOFr:  IOpCl= 0 IRwI=-1 IRwCP=  731 ICalc=  0 LCPTot=      101349 Len1MO=      263944 IndFrg=      365293
 Counterpoise: doing calculation for fragment   1 using the basis set of the full-system, NewBq=T
 Basis read from rwf:  (5D, 7F)
   254 basis functions,   402 primitive gaussians,   263 cartesian basis functions
    34 alpha electrons       34 beta electrons
       nuclear repulsion energy       447.3503058237 Hartrees.
 NAtoms=   17 NActive=   17 NUniq=   17 SFac= 1.00D+00 NAtFMM=   60 NAOKFM=F Big=F
 Integral buffers will be    131072 words long.
 Raffenetti 1 integral format.
 Two-electron integral symmetry is turned off.
 One-electron integrals computed using PRISM.
 NBasis=   254 RedAO= T EigKep=  1.60D-06  NBF=   254
 NBsUse=   254 1.00D-06 EigRej= -1.00D+00 NBFU=   254
 ExpMin= 1.46D-02 ExpMax= 4.39D+04 ExpMxC= 1.51D+03 IAcc=3 IRadAn=         5 AccDes= 0.00D+00
 Harris functional with IExCor=  205 and IRadAn=       5 diagonalized for initial guess.
 HarFok:  IExCor=  205 AccDes= 0.00D+00 IRadAn=         5 IDoV= 1 UseB2=F ITyADJ=14
 ICtDFT=  3500011 ScaDFX=  1.000000  1.000000  1.000000  1.000000
 FoFCou: FMM=F IPFlag=           0 FMFlag=      100000 FMFlg1=           0
         NFxFlg=           0 DoJE=T BraDBF=F KetDBF=T FulRan=T
         wScrn=  0.000000 ICntrl=       500 IOpCl=  0 I1Cent=   200000004 NGrid=           0
         NMat0=    1 NMatS0=      1 NMatT0=    0 NMatD0=    1 NMtDS0=    0 NMtDT0=    0
 Symmetry not used in FoFCou.
 Requested convergence on RMS density matrix=1.00D-08 within 128 cycles.
 Requested convergence on MAX density matrix=1.00D-06.
 Requested convergence on             energy=1.00D-06.
 No special actions if energy rises.
 SCF Done:  E(RHF) =  -578.984633725     A.U. after   15 cycles
            NFock= 15  Conv=0.75D-08     -V/T= 2.0013
 ExpMin= 1.46D-02 ExpMax= 4.39D+04 ExpMxC= 1.51D+03 IAcc=3 IRadAn=         5 AccDes= 0.00D+00
 HarFok:  IExCor=  205 AccDes= 0.00D+00 IRadAn=         5 IDoV=-2 UseB2=F ITyADJ=14
 ICtDFT= 12500011 ScaDFX=  1.000000  1.000000  1.000000  1.000000
 Range of M.O.s used for correlation:    14   254
 NBasis=   254 NAE=    34 NBE=    34 NFC=    13 NFV=     0
 NROrb=    241 NOA=    21 NOB=    21 NVA=   220 NVB=   220

 **** Warning!!: The largest alpha MO coefficient is  0.20167276D+03

 Fully direct method using O(ONN) memory.
 JobTyp=1 Pass  1:  I=  14 to  34 NPSUse= 10 ParTrn=T ParDer=T DoDerP=T.
 Spin components of T(2) and E(2):
     alpha-alpha T2 =       0.6103258886D-01 E2=     -0.1716160852D+00
     alpha-beta  T2 =       0.3051907501D+00 E2=     -0.9073351572D+00
     beta-beta   T2 =       0.6103258886D-01 E2=     -0.1716160852D+00
 ANorm=    0.1194678169D+01
 E2 =    -0.1250567328D+01 EUMP2 =    -0.58023520105266D+03
          IDoAtm=00000000000001111
          Differentiating once with respect to electric field.
                with respect to dipole field.
          Differentiating once with respect to nuclear coordinates.
 Keep R1 ints in memory in canonical form, NReq=533613751.
          There are     1 degrees of freedom in the 1st order CPHF.  IDoFFX=0 NUNeed=     1.
 LinEq1:  Iter=  0 NonCon=     1 RMS=4.09D-03 Max=8.72D-02 NDo=     1
 AX will form     1 AO Fock derivatives at one time.
 LinEq1:  Iter=  1 NonCon=     1 RMS=1.00D-03 Max=1.78D-02 NDo=     1
 LinEq1:  Iter=  2 NonCon=     1 RMS=4.19D-04 Max=9.25D-03 NDo=     1
 LinEq1:  Iter=  3 NonCon=     1 RMS=1.33D-04 Max=1.99D-03 NDo=     1
 LinEq1:  Iter=  4 NonCon=     1 RMS=5.04D-05 Max=1.29D-03 NDo=     1
 LinEq1:  Iter=  5 NonCon=     1 RMS=1.27D-05 Max=3.85D-04 NDo=     1
 LinEq1:  Iter=  6 NonCon=     1 RMS=4.07D-06 Max=1.64D-04 NDo=     1
 LinEq1:  Iter=  7 NonCon=     1 RMS=2.09D-06 Max=7.99D-05 NDo=     1
 LinEq1:  Iter=  8 NonCon=     1 RMS=6.32D-07 Max=1.22D-05 NDo=     1
 LinEq1:  Iter=  9 NonCon=     1 RMS=1.70D-07 Max=3.01D-06 NDo=     1
 LinEq1:  Iter= 10 NonCon=     1 RMS=7.02D-08 Max=1.40D-06 NDo=     1
 LinEq1:  Iter= 11 NonCon=     1 RMS=2.01D-08 Max=3.65D-07 NDo=     1
 LinEq1:  Iter= 12 NonCon=     1 RMS=4.30D-09 Max=6.20D-08 NDo=     1
 LinEq1:  Iter= 13 NonCon=     1 RMS=6.64D-10 Max=1.09D-08 NDo=     1
 LinEq1:  Iter= 14 NonCon=     1 RMS=1.58D-10 Max=3.59D-09 NDo=     1
 LinEq1:  Iter= 15 NonCon=     1 RMS=4.78D-11 Max=2.22D-09 NDo=     1
 LinEq1:  Iter= 16 NonCon=     0 RMS=1.98D-11 Max=8.15D-10 NDo=     1
 Linear equations converged to 1.000D-10 1.000D-09 after    16 iterations.
 End of Minotr F.D. properties file   721 does not exist.
 End of Minotr F.D. properties file   722 does not exist.
 End of Minotr F.D. properties file   788 does not exist.

 **********************************************************************

            Population analysis using the SCF Density.

 **********************************************************************

 Alpha  occ. eigenvalues --  -49.10371 -20.50781 -20.50780 -11.25875 -11.25775
 Alpha  occ. eigenvalues --  -11.20021 -11.19910 -11.19684 -11.19680  -3.83484
 Alpha  occ. eigenvalues --   -2.35764  -2.35740  -2.35578  -1.31693  -1.27977
 Alpha  occ. eigenvalues --   -1.09262  -0.96760  -0.94182  -0.79243  -0.76710
 Alpha  occ. eigenvalues --   -0.65305  -0.63264  -0.61043  -0.56389  -0.55283
 Alpha  occ. eigenvalues --   -0.54937  -0.49813  -0.49606  -0.47994  -0.44980
 Alpha  occ. eigenvalues --   -0.42399  -0.42094  -0.28892  -0.25336
 Alpha virt. eigenvalues --   -0.05751   0.01549   0.01852   0.02381   0.04312
 Alpha virt. eigenvalues --    0.06291   0.07329   0.08686   0.10369   0.10842
 Alpha virt. eigenvalues --    0.12259   0.13563   0.14325   0.14858   0.15774
 Alpha virt. eigenvalues --    0.15962   0.16399   0.16731   0.16822   0.17785
 Alpha virt. eigenvalues --    0.18216   0.20518   0.20879   0.20899   0.21410
 Alpha virt. eigenvalues --    0.22204   0.23333   0.24131   0.24479   0.25327
 Alpha virt. eigenvalues --    0.25834   0.25991   0.26880   0.28931   0.29352
 Alpha virt. eigenvalues --    0.29975   0.30803   0.31089   0.32380   0.32461
 Alpha virt. eigenvalues --    0.33999   0.36734   0.36876   0.37513   0.38756
 Alpha virt. eigenvalues --    0.38779   0.39617   0.40796   0.43230   0.43903
 Alpha virt. eigenvalues --    0.44722   0.45991   0.47549   0.47590   0.50510
 Alpha virt. eigenvalues --    0.51503   0.53558   0.53645   0.54474   0.55118
 Alpha virt. eigenvalues --    0.58003   0.58228   0.59107   0.65283   0.65391
 Alpha virt. eigenvalues --    0.71477   0.73482   0.74052   0.74793   0.76239
 Alpha virt. eigenvalues --    0.76873   0.78443   0.78553   0.79835   0.81493
 Alpha virt. eigenvalues --    0.82094   0.83167   0.85143   0.86200   0.86625
 Alpha virt. eigenvalues --    0.89261   0.90000   0.90547   0.92890   0.94438
 Alpha virt. eigenvalues --    0.95271   0.96667   0.98445   1.01922   1.02901
 Alpha virt. eigenvalues --    1.03023   1.05708   1.06061   1.11569   1.11698
 Alpha virt. eigenvalues --    1.13549   1.16275   1.19325   1.22114   1.22625
 Alpha virt. eigenvalues --    1.27046   1.27385   1.29027   1.30135   1.37263
 Alpha virt. eigenvalues --    1.38940   1.41261   1.41317   1.46508   1.49052
 Alpha virt. eigenvalues --    1.52309   1.52957   1.54769   1.56882   1.62548
 Alpha virt. eigenvalues --    1.71119   1.73554   1.76469   1.79344   1.82036
 Alpha virt. eigenvalues --    1.83302   1.83960   1.86504   1.89541   1.91806
 Alpha virt. eigenvalues --    1.95117   1.95175   1.97628   1.99466   2.03823
 Alpha virt. eigenvalues --    2.05367   2.09695   2.12330   2.16800   2.18103
 Alpha virt. eigenvalues --    2.20365   2.22730   2.24029   2.24619   2.26111
 Alpha virt. eigenvalues --    2.28111   2.28571   2.29794   2.31074   2.36043
 Alpha virt. eigenvalues --    2.36666   2.37422   2.40759   2.42656   2.47224
 Alpha virt. eigenvalues --    2.51671   2.56561   2.58140   2.65294   2.66704
 Alpha virt. eigenvalues --    2.71127   2.79272   2.80587   2.85128   2.90065
 Alpha virt. eigenvalues --    2.94305   3.02928   3.05237   3.08054   3.08276
 Alpha virt. eigenvalues --    3.09712   3.11527   3.17638   3.18348   3.19320
 Alpha virt. eigenvalues --    3.23035   3.29612   3.29892   3.33585   3.35688
 Alpha virt. eigenvalues --    3.42421   3.45894   3.50643   3.51055   3.58226
 Alpha virt. eigenvalues --    3.60814   3.61638   3.65685   3.69521   3.81859
 Alpha virt. eigenvalues --    3.83977   3.85478   3.87575   3.96158   3.99066
 Alpha virt. eigenvalues --    4.07566   4.14767   4.20851   4.22956   4.47460
 Alpha virt. eigenvalues --    4.49966   4.60295   4.68315   4.68899   4.88565
 Alpha virt. eigenvalues --    5.09932   5.29197   5.64574   5.67798   5.77791
 Alpha virt. eigenvalues --    5.89655   6.20637   6.35531   6.39527   6.62598
 Alpha virt. eigenvalues --    6.70785  24.78127  25.06326  25.11589  25.21421
 Alpha virt. eigenvalues --   25.27244  25.36503  51.70627  51.76794 105.77298
          Condensed to atoms (all electrons):
               1          2          3          4          5          6
     1  C   22.527427  -0.578205   1.280110  -7.401313 -10.250831   1.338261
     2  C   -0.578205   5.653011   0.287630   1.279164  -0.670844  -0.205593
     3  C    1.280110   0.287630   5.653151  -0.576300  -0.206038  -0.672481
     4  C   -7.401313   1.279164  -0.576300  22.524960   1.341299 -10.251709
     5  C  -10.250831  -0.670844  -0.206038   1.341299  21.730729  -6.982231
     6  C    1.338261  -0.205593  -0.672481 -10.251709  -6.982231  21.733312
     7  O   -1.100611   0.043544  -0.034550   0.269638   0.473469   0.350096
     8  O    0.269536  -0.034523   0.043505  -1.100771   0.350252   0.473475
     9  H   -0.031614   0.008362   0.398469  -0.033942   0.004676   0.020394
    10  H   -0.034066   0.398607   0.008281  -0.031533   0.020296   0.004765
    11  Mg   0.125097  -0.011122  -0.011172   0.125192  -0.163943  -0.164131
    12  H    0.319935  -0.008641  -0.004297  -0.005791   0.026263   0.043569
    13  H   -0.005777  -0.004282  -0.008768   0.320030   0.043457   0.026381
    14  H   -0.000089   0.000017   0.000016  -0.000053  -0.000160  -0.000270
    15  H    0.000111  -0.000006  -0.000005   0.000074  -0.000181  -0.000059
    16  H    0.006826  -0.000679  -0.000657   0.006799  -0.007397  -0.007548
    17  H   -0.003288   0.000489   0.000484  -0.003275   0.003077   0.003089
               7          8          9         10         11         12
     1  C   -1.100611   0.269536  -0.031614  -0.034066   0.125097   0.319935
     2  C    0.043544  -0.034523   0.008362   0.398607  -0.011122  -0.008641
     3  C   -0.034550   0.043505   0.398469   0.008281  -0.011172  -0.004297
     4  C    0.269638  -1.100771  -0.033942  -0.031533   0.125192  -0.005791
     5  C    0.473469   0.350252   0.004676   0.020296  -0.163943   0.026263
     6  C    0.350096   0.473475   0.020394   0.004765  -0.164131   0.043569
     7  O    8.301932  -0.004672   0.000063  -0.000414   0.191907  -0.004258
     8  O   -0.004672   8.302137  -0.000413   0.000063   0.191824  -0.000237
     9  H    0.000063  -0.000413   0.521648  -0.005032   0.000393  -0.000142
    10  H   -0.000414   0.000063  -0.005032   0.521641   0.000391  -0.004887
    11  Mg   0.191907   0.191824   0.000393   0.000391  10.583603   0.001487
    12  H   -0.004258  -0.000237  -0.000142  -0.004887   0.001487   0.509550
    13  H   -0.000239  -0.004245  -0.004889  -0.000142   0.001490   0.000019
    14  H    0.000021   0.000019   0.000000   0.000000  -0.000765   0.000000
    15  H   -0.000025  -0.000020   0.000000   0.000000   0.000249  -0.000000
    16  H    0.000110   0.000112  -0.000014  -0.000014  -0.000123  -0.000052
    17  H   -0.000022  -0.000025   0.000001   0.000001  -0.000550   0.000011
              13         14         15         16         17
     1  C   -0.005777  -0.000089   0.000111   0.006826  -0.003288
     2  C   -0.004282   0.000017  -0.000006  -0.000679   0.000489
     3  C   -0.008768   0.000016  -0.000005  -0.000657   0.000484
     4  C    0.320030  -0.000053   0.000074   0.006799  -0.003275
     5  C    0.043457  -0.000160  -0.000181  -0.007397   0.003077
     6  C    0.026381  -0.000270  -0.000059  -0.007548   0.003089
     7  O   -0.000239   0.000021  -0.000025   0.000110  -0.000022
     8  O   -0.004245   0.000019  -0.000020   0.000112  -0.000025
     9  H   -0.004889   0.000000   0.000000  -0.000014   0.000001
    10  H   -0.000142   0.000000   0.000000  -0.000014   0.000001
    11  Mg   0.001490  -0.000765   0.000249  -0.000123  -0.000550
    12  H    0.000019   0.000000  -0.000000  -0.000052   0.000011
    13  H    0.509540   0.000000  -0.000000  -0.000052   0.000011
    14  H    0.000000   0.000227  -0.000047  -0.000004   0.000004
    15  H   -0.000000  -0.000047   0.000180   0.000001  -0.000000
    16  H   -0.000052  -0.000004   0.000001   0.002197  -0.000889
    17  H    0.000011   0.000004  -0.000000  -0.000889   0.000768
 Mulliken charges:
               1
     1  C   -0.461507
     2  C   -0.156928
     3  C   -0.157378
     4  C   -0.462469
     5  C    0.288106
     6  C    0.290681
     7  O   -0.485992
     8  O   -0.486017
     9  H    0.122042
    10  H    0.122042
    11  Mg   1.130174
    12  H    0.127471
    13  H    0.127467
    14  H    0.001083
    15  H   -0.000272
    16  H    0.001384
    17  H    0.000114
 Sum of Mulliken charges =  -0.00000
 Mulliken charges with hydrogens summed into heavy atoms:
               1
     1  C   -0.334036
     2  C   -0.034886
     3  C   -0.035336
     4  C   -0.335002
     5  C    0.288106
     6  C    0.292065
     7  O   -0.485992
     8  O   -0.486017
    11  Mg   1.131099
         Mulliken charges condensed to fragments:
      1     -0.002309
      2      0.000811
      3      0.001498
 Electronic spatial extent (au):  <R**2>=           1431.5912
 Charge=             -0.0000 electrons
 Dipole moment (field-independent basis, Debye):
    X=              8.9538    Y=              0.0003    Z=              0.0032  Tot=              8.9538
 Quadrupole moment (field-independent basis, Debye-Ang):
   XX=              2.0047   YY=            -63.7590   ZZ=            -56.9269
   XY=              0.0006   XZ=             -0.0025   YZ=             -0.0000
 Traceless Quadrupole moment (field-independent basis, Debye-Ang):
   XX=             41.5651   YY=            -24.1986   ZZ=            -17.3665
   XY=              0.0006   XZ=             -0.0025   YZ=             -0.0000
 Octapole moment (field-independent basis, Debye-Ang**2):
  XXX=            129.2943  YYY=              0.0080  ZZZ=              0.0100  XYY=            -81.3542
  XXY=              0.0046  XXZ=             -0.0148  XZZ=            -39.2048  YZZ=              0.0021
  YYZ=              0.0051  XYZ=             -0.0000
 Hexadecapole moment (field-independent basis, Debye-Ang**3):
 XXXX=            102.9368 YYYY=           -468.6125 ZZZZ=            -67.6051 XXXY=              0.0182
 XXXZ=             -0.0975 YYYX=              0.0201 YYYZ=              0.0000 ZZZX=             -0.0016
 ZZZY=             -0.0001 XXYY=           -347.2778 XXZZ=           -190.1516 YYZZ=            -97.0995
 XXYZ=              0.0004 YYXZ=             -0.0161 ZZXY=              0.0036
 N-N= 4.473503058237D+02 E-N=-2.266166840752D+03  KE= 5.782290434812D+02
 Calling FoFJK, ICntrl=  10002127 FMM=F ISym2X=0 I1Cent= 0 IOpClX= 0 NMat=1 NMatS=1 NMatT=0.
 Cartesian Forces:  Max     0.000313425 RMS     0.000067146
 CPIOFr:  IOpCl= 0 IRwI=-1 IRwCP=  731 ICalc=  1 LCPTot=      101349 Len1MO=      263944 IndFrg=      629237
 Counterpoise: doing calculation for fragment   2 using the basis set of the full-system, NewBq=T
 Basis read from rwf:  (5D, 7F)
   254 basis functions,   402 primitive gaussians,   263 cartesian basis functions
     1 alpha electrons        1 beta electrons
       nuclear repulsion energy         0.7081891140 Hartrees.
 NAtoms=   17 NActive=   17 NUniq=   17 SFac= 1.00D+00 NAtFMM=   60 NAOKFM=F Big=F
 Integral buffers will be    131072 words long.
 Raffenetti 1 integral format.
 Two-electron integral symmetry is turned off.
 One-electron integrals computed using PRISM.
 NBasis=   254 RedAO= T EigKep=  1.60D-06  NBF=   254
 NBsUse=   254 1.00D-06 EigRej= -1.00D+00 NBFU=   254
 ExpMin= 1.46D-02 ExpMax= 4.39D+04 ExpMxC= 1.51D+03 IAcc=3 IRadAn=         5 AccDes= 0.00D+00
 Harris functional with IExCor=  205 and IRadAn=       5 diagonalized for initial guess.
 HarFok:  IExCor=  205 AccDes= 0.00D+00 IRadAn=         5 IDoV= 1 UseB2=F ITyADJ=14
 ICtDFT=  3500011 ScaDFX=  1.000000  1.000000  1.000000  1.000000
 FoFCou: FMM=F IPFlag=           0 FMFlag=      100000 FMFlg1=           0
         NFxFlg=           0 DoJE=T BraDBF=F KetDBF=T FulRan=T
         wScrn=  0.000000 ICntrl=       500 IOpCl=  0 I1Cent=   200000004 NGrid=           0
         NMat0=    1 NMatS0=      1 NMatT0=    0 NMatD0=    1 NMtDS0=    0 NMtDT0=    0
 Symmetry not used in FoFCou.
 Requested convergence on RMS density matrix=1.00D-08 within 128 cycles.
 Requested convergence on MAX density matrix=1.00D-06.
 Requested convergence on             energy=1.00D-06.
 No special actions if energy rises.
 SCF Done:  E(RHF) =  -1.13245447799     A.U. after    7 cycles
            NFock=  7  Conv=0.98D-09     -V/T= 2.0146
 Range of M.O.s used for correlation:     1   254
 NBasis=   254 NAE=     1 NBE=     1 NFC=     0 NFV=     0
 NROrb=    254 NOA=     1 NOB=     1 NVA=   253 NVB=   253

 **** Warning!!: The largest alpha MO coefficient is  0.17502526D+03

 Fully direct method using O(ONN) memory.
 JobTyp=1 Pass  1:  I=   1 to   1 NPSUse= 10 ParTrn=T ParDer=T DoDerP=T.
 Spin components of T(2) and E(2):
     alpha-alpha T2 =       0.0000000000D+00 E2=      0.0000000000D+00
     alpha-beta  T2 =       0.9551845817D-02 E2=     -0.2834456191D-01
     beta-beta   T2 =       0.0000000000D+00 E2=      0.0000000000D+00
 ANorm=    0.1004764572D+01
 E2 =    -0.2834456191D-01 EUMP2 =    -0.11607990399070D+01
          IDoAtm=00000000000001111
          Differentiating once with respect to electric field.
                with respect to dipole field.
          Differentiating once with respect to nuclear coordinates.
 Keep R1 ints in memory in canonical form, NReq=533613764.
          There are     1 degrees of freedom in the 1st order CPHF.  IDoFFX=0 NUNeed=     1.
 LinEq1:  Iter=  0 NonCon=     1 RMS=1.01D-03 Max=8.07D-03 NDo=     1
 AX will form     1 AO Fock derivatives at one time.
 LinEq1:  Iter=  1 NonCon=     1 RMS=4.60D-05 Max=4.88D-04 NDo=     1
 LinEq1:  Iter=  2 NonCon=     1 RMS=2.86D-06 Max=2.25D-05 NDo=     1
 LinEq1:  Iter=  3 NonCon=     1 RMS=1.24D-07 Max=9.62D-07 NDo=     1
 LinEq1:  Iter=  4 NonCon=     1 RMS=5.24D-09 Max=4.17D-08 NDo=     1
 LinEq1:  Iter=  5 NonCon=     1 RMS=4.05D-10 Max=2.06D-09 NDo=     1
 LinEq1:  Iter=  6 NonCon=     0 RMS=3.30D-11 Max=1.40D-10 NDo=     1
 Linear equations converged to 1.000D-10 1.000D-09 after     6 iterations.
 End of Minotr F.D. properties file   721 does not exist.
 End of Minotr F.D. properties file   722 does not exist.
 End of Minotr F.D. properties file   788 does not exist.

 **********************************************************************

            Population analysis using the SCF Density.

 **********************************************************************

 Alpha  occ. eigenvalues --   -0.59245
 Alpha virt. eigenvalues --    0.01970   0.02948   0.02978   0.03196   0.06136
 Alpha virt. eigenvalues --    0.07202   0.07892   0.09728   0.09872   0.10008
 Alpha virt. eigenvalues --    0.10741   0.11544   0.12081   0.12955   0.14242
 Alpha virt. eigenvalues --    0.14586   0.15147   0.16137   0.17016   0.17964
 Alpha virt. eigenvalues --    0.18476   0.18987   0.20445   0.21469   0.21662
 Alpha virt. eigenvalues --    0.22128   0.23817   0.24072   0.24282   0.24650
 Alpha virt. eigenvalues --    0.25652   0.26061   0.27152   0.27238   0.28661
 Alpha virt. eigenvalues --    0.29931   0.30456   0.31210   0.31596   0.31738
 Alpha virt. eigenvalues --    0.34967   0.35489   0.36133   0.36996   0.37839
 Alpha virt. eigenvalues --    0.38529   0.40656   0.43494   0.43637   0.44137
 Alpha virt. eigenvalues --    0.44166   0.47022   0.47063   0.47217   0.49346
 Alpha virt. eigenvalues --    0.49553   0.51315   0.53581   0.55669   0.57484
 Alpha virt. eigenvalues --    0.59695   0.59764   0.62410   0.63463   0.66631
 Alpha virt. eigenvalues --    0.68182   0.70876   0.73373   0.73803   0.75335
 Alpha virt. eigenvalues --    0.75736   0.78085   0.78858   0.79982   0.81340
 Alpha virt. eigenvalues --    0.81921   0.86572   0.90153   0.90684   0.92255
 Alpha virt. eigenvalues --    0.94938   0.96175   0.98224   0.99259   0.99914
 Alpha virt. eigenvalues --    1.01340   1.02109   1.04643   1.11064   1.11494
 Alpha virt. eigenvalues --    1.13226   1.15718   1.17691   1.19030   1.21824
 Alpha virt. eigenvalues --    1.22368   1.28039   1.30488   1.35755   1.39389
 Alpha virt. eigenvalues --    1.41573   1.42751   1.50270   1.51332   1.52456
 Alpha virt. eigenvalues --    1.53440   1.55569   1.57153   1.57279   1.69889
 Alpha virt. eigenvalues --    1.70538   1.71118   1.72418   1.72964   1.74756
 Alpha virt. eigenvalues --    1.76370   1.78945   1.79752   1.81108   1.85315
 Alpha virt. eigenvalues --    1.85879   1.87308   1.89909   1.92900   1.94730
 Alpha virt. eigenvalues --    1.98337   1.99626   2.02448   2.06075   2.07920
 Alpha virt. eigenvalues --    2.08238   2.09975   2.12089   2.18812   2.19322
 Alpha virt. eigenvalues --    2.29928   2.30964   2.31662   2.32027   2.36671
 Alpha virt. eigenvalues --    2.38051   2.39337   2.39650   2.41534   2.42909
 Alpha virt. eigenvalues --    2.44422   2.48222   2.51995   2.54467   2.57512
 Alpha virt. eigenvalues --    2.57524   2.60078   2.71718   2.73327   2.78696
 Alpha virt. eigenvalues --    2.82929   2.83861   2.87201   2.88322   2.93552
 Alpha virt. eigenvalues --    2.94266   2.96887   2.99413   2.99783   3.08941
 Alpha virt. eigenvalues --    3.11325   3.11504   3.13625   3.24730   3.30035
 Alpha virt. eigenvalues --    3.30387   3.33038   3.33776   3.35609   3.37209
 Alpha virt. eigenvalues --    3.47102   3.48378   3.49294   3.52991   3.54865
 Alpha virt. eigenvalues --    3.56890   3.65589   3.73104   3.78945   3.94880
 Alpha virt. eigenvalues --    4.02416   4.19917   4.20316   4.25830   4.36857
 Alpha virt. eigenvalues --    4.41266   4.60894   4.61062   4.63713   4.63891
 Alpha virt. eigenvalues --    4.82618   4.85261   4.87022   4.90879   4.92237
 Alpha virt. eigenvalues --    4.93594   5.06632   5.08999   5.33158   5.36196
 Alpha virt. eigenvalues --    5.62987   5.87036   7.03115   7.04033   7.09971
 Alpha virt. eigenvalues --    7.13682   7.21703   7.24335   7.36001   7.72419
 Alpha virt. eigenvalues --    7.73746   7.73757   7.75181   7.80169   7.83753
 Alpha virt. eigenvalues --    7.95590   7.97660   8.06804   8.15333   8.31698
 Alpha virt. eigenvalues --    8.92836   9.65977  10.12841  10.18983  10.21849
 Alpha virt. eigenvalues --   10.25234  10.29984  13.50310  13.53743  13.66993
 Alpha virt. eigenvalues --   13.77945  14.01363  14.12555  18.55563  18.67054
 Alpha virt. eigenvalues --   24.89865  25.10793  25.17644  42.01692  69.75032
 Alpha virt. eigenvalues --   69.92727  69.97694  70.00370  70.02416  70.06252
 Alpha virt. eigenvalues --  139.79043 139.81015 308.95268
          Condensed to atoms (all electrons):
               1          2          3          4          5          6
     1  C    0.004059   0.000881   0.000606   0.002328  -0.001830  -0.003858
     2  C    0.000881   0.000327   0.000192   0.000491  -0.000515  -0.001056
     3  C    0.000606   0.000192   0.000382   0.000874  -0.001080  -0.000626
     4  C    0.002328   0.000491   0.000874   0.003515  -0.003415  -0.001757
     5  C   -0.001830  -0.000515  -0.001080  -0.003415   0.003927   0.001723
     6  C   -0.003858  -0.001056  -0.000626  -0.001757   0.001723   0.004340
     7  O    0.000154   0.000039   0.000012   0.000012  -0.000047  -0.000229
     8  O    0.000016   0.000010   0.000042   0.000147  -0.000219  -0.000051
     9  H    0.000009   0.000006   0.000014   0.000015  -0.000028  -0.000014
    10  H    0.000017   0.000013   0.000007   0.000008  -0.000014  -0.000030
    11  Mg  -0.002333  -0.000376  -0.000410  -0.002174   0.001521   0.001585
    12  H   -0.000056  -0.000017  -0.000005  -0.000014   0.000011   0.000067
    13  H   -0.000016  -0.000004  -0.000017  -0.000052   0.000063   0.000012
    14  H   -0.000751  -0.000030  -0.000032  -0.000702  -0.000959  -0.001066
    15  H   -0.000730  -0.000029  -0.000032  -0.000696  -0.000988  -0.001097
    16  H    0.000054   0.000008   0.000009   0.000050  -0.000037  -0.000037
    17  H   -0.000005  -0.000001  -0.000001  -0.000005   0.000003   0.000003
               7          8          9         10         11         12
     1  C    0.000154   0.000016   0.000009   0.000017  -0.002333  -0.000056
     2  C    0.000039   0.000010   0.000006   0.000013  -0.000376  -0.000017
     3  C    0.000012   0.000042   0.000014   0.000007  -0.000410  -0.000005
     4  C    0.000012   0.000147   0.000015   0.000008  -0.002174  -0.000014
     5  C   -0.000047  -0.000219  -0.000028  -0.000014   0.001521   0.000011
     6  C   -0.000229  -0.000051  -0.000014  -0.000030   0.001585   0.000067
     7  O    0.000035   0.000012   0.000000   0.000001  -0.000020  -0.000004
     8  O    0.000012   0.000035   0.000001   0.000000  -0.000024  -0.000000
     9  H    0.000000   0.000001   0.000001   0.000000  -0.000003  -0.000000
    10  H    0.000001   0.000000   0.000000   0.000001  -0.000003  -0.000000
    11  Mg  -0.000020  -0.000024  -0.000003  -0.000003   0.002530   0.000018
    12  H   -0.000004  -0.000000  -0.000000  -0.000000   0.000018   0.000002
    13  H   -0.000000  -0.000004  -0.000000  -0.000000   0.000018   0.000000
    14  H    0.000613   0.000599  -0.000000  -0.000000  -0.006271   0.000000
    15  H    0.000607   0.000612  -0.000000  -0.000000  -0.006248   0.000000
    16  H   -0.000000   0.000000   0.000000   0.000000  -0.000053  -0.000000
    17  H    0.000000   0.000000  -0.000000  -0.000000   0.000006   0.000000
              13         14         15         16         17
     1  C   -0.000016  -0.000751  -0.000730   0.000054  -0.000005
     2  C   -0.000004  -0.000030  -0.000029   0.000008  -0.000001
     3  C   -0.000017  -0.000032  -0.000032   0.000009  -0.000001
     4  C   -0.000052  -0.000702  -0.000696   0.000050  -0.000005
     5  C    0.000063  -0.000959  -0.000988  -0.000037   0.000003
     6  C    0.000012  -0.001066  -0.001097  -0.000037   0.000003
     7  O   -0.000000   0.000613   0.000607  -0.000000   0.000000
     8  O   -0.000004   0.000599   0.000612   0.000000   0.000000
     9  H   -0.000000  -0.000000  -0.000000   0.000000  -0.000000
    10  H   -0.000000  -0.000000  -0.000000   0.000000  -0.000000
    11  Mg   0.000018  -0.006271  -0.006248  -0.000053   0.000006
    12  H    0.000000   0.000000   0.000000  -0.000000   0.000000
    13  H    0.000001   0.000000   0.000000  -0.000000   0.000000
    14  H    0.000000   0.590625   0.426427  -0.000015   0.000003
    15  H    0.000000   0.426427   0.590563  -0.000007   0.000001
    16  H   -0.000000  -0.000015  -0.000007   0.000007  -0.000001
    17  H    0.000000   0.000003   0.000001  -0.000001   0.000000
 Mulliken charges:
               1
     1  C    0.001457
     2  C    0.000061
     3  C    0.000065
     4  C    0.001374
     5  C    0.001883
     6  C    0.002093
     7  O   -0.001186
     8  O   -0.001177
     9  H    0.000000
    10  H    0.000000
    11  Mg   0.012237
    12  H   -0.000001
    13  H   -0.000001
    14  H   -0.008440
    15  H   -0.008383
    16  H    0.000022
    17  H   -0.000004
 Sum of Mulliken charges =  -0.00000
 Mulliken charges with hydrogens summed into heavy atoms:
               1
     1  C    0.001456
     2  C    0.000061
     3  C    0.000065
     4  C    0.001374
     5  C    0.001883
     6  C    0.002114
     7  O   -0.001186
     8  O   -0.001177
    11  Mg  -0.004590
         Mulliken charges condensed to fragments:
      1      0.016805
      2     -0.016823
      3      0.000018
 Electronic spatial extent (au):  <R**2>=            246.1873
 Charge=             -0.0000 electrons
 Dipole moment (field-independent basis, Debye):
    X=              0.0039    Y=             -0.0000    Z=              0.0001  Tot=              0.0039
 Quadrupole moment (field-independent basis, Debye-Ang):
   XX=             -2.0545   YY=             -2.0775   ZZ=             -1.4753
   XY=             -0.0007   XZ=             -0.0132   YZ=              0.0269
 Traceless Quadrupole moment (field-independent basis, Debye-Ang):
   XX=             -0.1854   YY=             -0.2084   ZZ=              0.3938
   XY=             -0.0007   XZ=             -0.0132   YZ=              0.0269
 Octapole moment (field-independent basis, Debye-Ang**2):
  XXX=            -36.1964  YYY=              0.0039  ZZZ=             -0.2016  XYY=            -12.0679
  XXY=             -0.0065  XXZ=             -0.2517  XZZ=             -8.5787  YZZ=              0.0034
  YYZ=             -0.0945  XYZ=              0.1558
 Hexadecapole moment (field-independent basis, Debye-Ang**3):
 XXXX=           -424.1463 YYYY=             -2.0460 ZZZZ=             -2.8911 XXXY=             -0.0421
 XXXZ=             -3.0182 YYYX=              0.0230 YYYZ=             -0.0210 ZZZX=             -1.1645
 ZZZY=             -0.0161 XXYY=            -70.8003 XXZZ=            -50.7380 YYZZ=             -0.8422
 XXYZ=              0.8970 YYXZ=             -0.5453 ZZXY=              0.0195
 N-N= 7.081891140276D-01 E-N=-3.612526002579D+00  KE= 1.116131804358D+00
 Calling FoFJK, ICntrl=  10002127 FMM=F ISym2X=0 I1Cent= 0 IOpClX= 0 NMat=1 NMatS=1 NMatT=0.
 Cartesian Forces:  Max     0.005766715 RMS     0.001142882
 CPIOFr:  IOpCl= 0 IRwI=-1 IRwCP=  731 ICalc=  2 LCPTot=      101349 Len1MO=      263944 IndFrg=      893181
 Counterpoise: doing calculation for fragment   3 using the basis set of the full-system, NewBq=T
 Basis read from rwf:  (5D, 7F)
   254 basis functions,   402 primitive gaussians,   263 cartesian basis functions
     1 alpha electrons        1 beta electrons
       nuclear repulsion energy         0.7136454695 Hartrees.
 NAtoms=   17 NActive=   17 NUniq=   17 SFac= 1.00D+00 NAtFMM=   60 NAOKFM=F Big=F
 Integral buffers will be    131072 words long.
 Raffenetti 1 integral format.
 Two-electron integral symmetry is turned off.
 One-electron integrals computed using PRISM.
 NBasis=   254 RedAO= T EigKep=  1.60D-06  NBF=   254
 NBsUse=   254 1.00D-06 EigRej= -1.00D+00 NBFU=   254
 ExpMin= 1.46D-02 ExpMax= 4.39D+04 ExpMxC= 1.51D+03 IAcc=3 IRadAn=         5 AccDes= 0.00D+00
 Harris functional with IExCor=  205 and IRadAn=       5 diagonalized for initial guess.
 HarFok:  IExCor=  205 AccDes= 0.00D+00 IRadAn=         5 IDoV= 1 UseB2=F ITyADJ=14
 ICtDFT=  3500011 ScaDFX=  1.000000  1.000000  1.000000  1.000000
 FoFCou: FMM=F IPFlag=           0 FMFlag=      100000 FMFlg1=           0
         NFxFlg=           0 DoJE=T BraDBF=F KetDBF=T FulRan=T
         wScrn=  0.000000 ICntrl=       500 IOpCl=  0 I1Cent=   200000004 NGrid=           0
         NMat0=    1 NMatS0=      1 NMatT0=    0 NMatD0=    1 NMtDS0=    0 NMtDT0=    0
 Symmetry not used in FoFCou.
 Requested convergence on RMS density matrix=1.00D-08 within 128 cycles.
 Requested convergence on MAX density matrix=1.00D-06.
 Requested convergence on             energy=1.00D-06.
 No special actions if energy rises.
 SCF Done:  E(RHF) =  -1.13256169700     A.U. after    7 cycles
            NFock=  7  Conv=0.42D-09     -V/T= 2.0095
 Range of M.O.s used for correlation:     1   254
 NBasis=   254 NAE=     1 NBE=     1 NFC=     0 NFV=     0
 NROrb=    254 NOA=     1 NOB=     1 NVA=   253 NVB=   253

 **** Warning!!: The largest alpha MO coefficient is  0.20212995D+03

 Fully direct method using O(ONN) memory.
 JobTyp=1 Pass  1:  I=   1 to   1 NPSUse= 10 ParTrn=T ParDer=T DoDerP=T.
 Spin components of T(2) and E(2):
     alpha-alpha T2 =       0.0000000000D+00 E2=      0.0000000000D+00
     alpha-beta  T2 =       0.9286045799D-02 E2=     -0.2805476632D-01
     beta-beta   T2 =       0.0000000000D+00 E2=      0.0000000000D+00
 ANorm=    0.1004632294D+01
 E2 =    -0.2805476632D-01 EUMP2 =    -0.11606164633200D+01
          IDoAtm=00000000000001111
          Differentiating once with respect to electric field.
                with respect to dipole field.
          Differentiating once with respect to nuclear coordinates.
 Keep R1 ints in memory in canonical form, NReq=533613764.
          There are     1 degrees of freedom in the 1st order CPHF.  IDoFFX=0 NUNeed=     1.
 LinEq1:  Iter=  0 NonCon=     1 RMS=1.08D-03 Max=6.68D-03 NDo=     1
 AX will form     1 AO Fock derivatives at one time.
 LinEq1:  Iter=  1 NonCon=     1 RMS=4.75D-05 Max=4.12D-04 NDo=     1
 LinEq1:  Iter=  2 NonCon=     1 RMS=2.80D-06 Max=1.80D-05 NDo=     1
 LinEq1:  Iter=  3 NonCon=     1 RMS=1.38D-07 Max=7.34D-07 NDo=     1
 LinEq1:  Iter=  4 NonCon=     1 RMS=7.55D-09 Max=5.25D-08 NDo=     1
 LinEq1:  Iter=  5 NonCon=     1 RMS=3.95D-10 Max=2.47D-09 NDo=     1
 LinEq1:  Iter=  6 NonCon=     0 RMS=3.03D-11 Max=1.80D-10 NDo=     1
 Linear equations converged to 1.000D-10 1.000D-09 after     6 iterations.
 End of Minotr F.D. properties file   721 does not exist.
 End of Minotr F.D. properties file   722 does not exist.
 End of Minotr F.D. properties file   788 does not exist.

 **********************************************************************

            Population analysis using the SCF Density.

 **********************************************************************

 Alpha  occ. eigenvalues --   -0.59420
 Alpha virt. eigenvalues --    0.01907   0.02807   0.02943   0.03584   0.06278
 Alpha virt. eigenvalues --    0.07181   0.07413   0.08984   0.09858   0.10043
 Alpha virt. eigenvalues --    0.10822   0.11752   0.12334   0.12761   0.12879
 Alpha virt. eigenvalues --    0.15216   0.15322   0.16689   0.16738   0.18060
 Alpha virt. eigenvalues --    0.18924   0.19627   0.20274   0.21276   0.21816
 Alpha virt. eigenvalues --    0.21891   0.23947   0.24104   0.24801   0.25536
 Alpha virt. eigenvalues --    0.26232   0.26968   0.27190   0.27541   0.28335
 Alpha virt. eigenvalues --    0.29916   0.30553   0.31143   0.31329   0.31686
 Alpha virt. eigenvalues --    0.33171   0.35388   0.35572   0.36781   0.36937
 Alpha virt. eigenvalues --    0.38615   0.39487   0.40841   0.43431   0.44329
 Alpha virt. eigenvalues --    0.45546   0.46514   0.46915   0.47297   0.48929
 Alpha virt. eigenvalues --    0.50292   0.52958   0.55203   0.55382   0.57489
 Alpha virt. eigenvalues --    0.59545   0.60677   0.62208   0.63458   0.66563
 Alpha virt. eigenvalues --    0.70688   0.70906   0.73754   0.73919   0.75409
 Alpha virt. eigenvalues --    0.75757   0.76833   0.77915   0.78647   0.81235
 Alpha virt. eigenvalues --    0.83392   0.85325   0.90268   0.91048   0.91596
 Alpha virt. eigenvalues --    0.94896   0.97718   0.98265   1.00348   1.01021
 Alpha virt. eigenvalues --    1.02199   1.03137   1.04181   1.10961   1.11497
 Alpha virt. eigenvalues --    1.14007   1.16110   1.18319   1.18658   1.22144
 Alpha virt. eigenvalues --    1.23722   1.27889   1.30317   1.37740   1.38525
 Alpha virt. eigenvalues --    1.38931   1.42740   1.46384   1.47041   1.49852
 Alpha virt. eigenvalues --    1.51721   1.53297   1.55524   1.55637   1.56735
 Alpha virt. eigenvalues --    1.69783   1.70945   1.71082   1.71580   1.75626
 Alpha virt. eigenvalues --    1.76200   1.78428   1.81766   1.85000   1.85676
 Alpha virt. eigenvalues --    1.86360   1.88803   1.89709   1.92294   1.94999
 Alpha virt. eigenvalues --    1.98528   2.02009   2.03042   2.06053   2.08048
 Alpha virt. eigenvalues --    2.11125   2.16098   2.16192   2.19250   2.19274
 Alpha virt. eigenvalues --    2.28924   2.29977   2.31665   2.33835   2.37780
 Alpha virt. eigenvalues --    2.38497   2.38531   2.39631   2.40561   2.42266
 Alpha virt. eigenvalues --    2.46577   2.48913   2.51871   2.54328   2.57322
 Alpha virt. eigenvalues --    2.58428   2.60000   2.72615   2.73225   2.80253
 Alpha virt. eigenvalues --    2.82707   2.83733   2.85185   2.87206   2.92315
 Alpha virt. eigenvalues --    2.93480   2.95058   2.96752   2.99978   3.08572
 Alpha virt. eigenvalues --    3.11242   3.12452   3.13484   3.23958   3.29921
 Alpha virt. eigenvalues --    3.30289   3.32830   3.33529   3.35494   3.37081
 Alpha virt. eigenvalues --    3.47001   3.48263   3.49199   3.52891   3.54773
 Alpha virt. eigenvalues --    3.56672   3.68028   3.73858   3.78856   3.94785
 Alpha virt. eigenvalues --    4.02214   4.20177   4.22737   4.24395   4.36692
 Alpha virt. eigenvalues --    4.46236   4.60785   4.60983   4.63634   4.63850
 Alpha virt. eigenvalues --    4.82528   4.85196   4.86951   4.90783   4.92477
 Alpha virt. eigenvalues --    4.93574   5.04094   5.06608   5.33050   5.36121
 Alpha virt. eigenvalues --    5.62823   5.86925   7.02999   7.04010   7.09856
 Alpha virt. eigenvalues --    7.13523   7.21567   7.24116   7.35851   7.72273
 Alpha virt. eigenvalues --    7.73642   7.73656   7.74997   7.80048   7.83615
 Alpha virt. eigenvalues --    7.95481   7.97547   8.06681   8.15193   8.31559
 Alpha virt. eigenvalues --    8.92706   9.65859  10.12681  10.18856  10.21734
 Alpha virt. eigenvalues --   10.25112  10.29879  13.50214  13.53659  13.66908
 Alpha virt. eigenvalues --   13.77861  14.01280  14.12470  18.55474  18.66969
 Alpha virt. eigenvalues --   24.89616  25.10539  25.17419  42.01442  69.74900
 Alpha virt. eigenvalues --   69.92559  69.97560  70.00263  70.02305  70.06150
 Alpha virt. eigenvalues --  139.78959 139.80931 308.95004
          Condensed to atoms (all electrons):
               1          2          3          4          5          6
     1  C    0.066861  -0.003582  -0.001957   0.045232  -0.046914  -0.063752
     2  C   -0.003582   0.000294   0.000176  -0.002956   0.002847   0.003358
     3  C   -0.001957   0.000176   0.000137  -0.002316   0.002132   0.001922
     4  C    0.045232  -0.002956  -0.002316   0.060265  -0.056957  -0.047145
     5  C   -0.046914   0.002847   0.002132  -0.056957   0.055087   0.048808
     6  C   -0.063752   0.003358   0.001922  -0.047145   0.048808   0.062094
     7  O    0.003158  -0.000098  -0.000052   0.001868  -0.002181  -0.003229
     8  O    0.001948  -0.000081  -0.000066   0.002940  -0.002995  -0.002271
     9  H   -0.000061   0.000008   0.000007  -0.000093   0.000079   0.000058
    10  H   -0.000096   0.000010   0.000005  -0.000057   0.000054   0.000082
    11  Mg  -0.004114   0.000153   0.000101  -0.003895   0.003840   0.004072
    12  H   -0.000482   0.000022   0.000008  -0.000137   0.000168   0.000421
    13  H   -0.000140   0.000013   0.000016  -0.000444   0.000383   0.000171
    14  H   -0.000014   0.000000   0.000000  -0.000013   0.000008   0.000009
    15  H    0.000009  -0.000000  -0.000000   0.000008  -0.000004  -0.000004
    16  H    0.034195  -0.001331  -0.000938   0.032424  -0.041491  -0.043599
    17  H    0.014677  -0.000502  -0.000362   0.013939  -0.019048  -0.019927
               7          8          9         10         11         12
     1  C    0.003158   0.001948  -0.000061  -0.000096  -0.004114  -0.000482
     2  C   -0.000098  -0.000081   0.000008   0.000010   0.000153   0.000022
     3  C   -0.000052  -0.000066   0.000007   0.000005   0.000101   0.000008
     4  C    0.001868   0.002940  -0.000093  -0.000057  -0.003895  -0.000137
     5  C   -0.002181  -0.002995   0.000079   0.000054   0.003840   0.000168
     6  C   -0.003229  -0.002271   0.000058   0.000082   0.004072   0.000421
     7  O    0.000368   0.000184  -0.000000  -0.000001  -0.000339  -0.000016
     8  O    0.000184   0.000359  -0.000001  -0.000000  -0.000337  -0.000002
     9  H   -0.000000  -0.000001   0.000001   0.000000   0.000002   0.000000
    10  H   -0.000001  -0.000000   0.000000   0.000001   0.000002   0.000001
    11  Mg  -0.000339  -0.000337   0.000002   0.000002   0.000840   0.000015
    12  H   -0.000016  -0.000002   0.000000   0.000001   0.000015   0.000010
    13  H   -0.000002  -0.000015   0.000001   0.000000   0.000015   0.000000
    14  H   -0.000003  -0.000003   0.000000   0.000000   0.000015   0.000000
    15  H    0.000001   0.000001  -0.000000  -0.000000  -0.000011  -0.000000
    16  H    0.003221   0.003196  -0.000004  -0.000004  -0.003831  -0.000033
    17  H    0.001472   0.001470  -0.000001  -0.000001  -0.002129  -0.000007
              13         14         15         16         17
     1  C   -0.000140  -0.000014   0.000009   0.034195   0.014677
     2  C    0.000013   0.000000  -0.000000  -0.001331  -0.000502
     3  C    0.000016   0.000000  -0.000000  -0.000938  -0.000362
     4  C   -0.000444  -0.000013   0.000008   0.032424   0.013939
     5  C    0.000383   0.000008  -0.000004  -0.041491  -0.019048
     6  C    0.000171   0.000009  -0.000004  -0.043599  -0.019927
     7  O   -0.000002  -0.000003   0.000001   0.003221   0.001472
     8  O   -0.000015  -0.000003   0.000001   0.003196   0.001470
     9  H    0.000001   0.000000  -0.000000  -0.000004  -0.000001
    10  H    0.000000   0.000000  -0.000000  -0.000004  -0.000001
    11  Mg   0.000015   0.000015  -0.000011  -0.003831  -0.002129
    12  H    0.000000   0.000000  -0.000000  -0.000033  -0.000007
    13  H    0.000009   0.000000  -0.000000  -0.000031  -0.000007
    14  H    0.000000   0.000003  -0.000002  -0.000015  -0.000012
    15  H   -0.000000  -0.000002   0.000001   0.000004   0.000003
    16  H   -0.000031  -0.000015   0.000004   0.646564   0.430884
    17  H   -0.000007  -0.000012   0.000003   0.430884   0.547694
 Mulliken charges:
               1
     1  C   -0.044969
     2  C    0.001668
     3  C    0.001188
     4  C   -0.042664
     5  C    0.056183
     6  C    0.058931
     7  O   -0.004349
     8  O   -0.004326
     9  H    0.000004
    10  H    0.000003
    11  Mg   0.005602
    12  H    0.000034
    13  H    0.000033
    14  H    0.000026
    15  H   -0.000007
    16  H   -0.059211
    17  H    0.031855
 Sum of Mulliken charges =  -0.00000
 Mulliken charges with hydrogens summed into heavy atoms:
               1
     1  C   -0.044935
     2  C    0.001672
     3  C    0.001191
     4  C   -0.042632
     5  C    0.056183
     6  C   -0.000280
     7  O   -0.004349
     8  O   -0.004326
    11  Mg   0.037476
         Mulliken charges condensed to fragments:
      1      0.027337
      2      0.000019
      3     -0.027356
 Electronic spatial extent (au):  <R**2>=             99.4551
 Charge=             -0.0000 electrons
 Dipole moment (field-independent basis, Debye):
    X=              0.0057    Y=             -0.0001    Z=             -0.0046  Tot=              0.0073
 Quadrupole moment (field-independent basis, Debye-Ang):
   XX=             -1.7803   YY=             -2.0845   ZZ=             -1.7694
   XY=             -0.0026   XZ=              0.3239   YZ=             -0.0029
 Traceless Quadrupole moment (field-independent basis, Debye-Ang):
   XX=              0.0978   YY=             -0.2065   ZZ=              0.1087
   XY=             -0.0026   XZ=              0.3239   YZ=             -0.0029
 Octapole moment (field-independent basis, Debye-Ang**2):
  XXX=            -11.1529  YYY=              0.0070  ZZZ=            -15.7083  XYY=             -4.3246
  XXY=             -0.0086  XXZ=             -4.0177  XZZ=             -1.7380  YZZ=             -0.0151
  YYZ=             -6.2138  XYZ=             -0.0138
 Hexadecapole moment (field-independent basis, Debye-Ang**3):
 XXXX=            -48.8280 YYYY=             -2.0669 ZZZZ=            -95.9806 XXXY=             -0.0186
 XXXZ=            -29.4044 YYYX=              0.0162 YYYZ=              0.0226 ZZZX=            -24.2135
 ZZZY=             -0.0563 XXYY=             -9.7335 XXZZ=            -16.4602 YYZZ=            -19.2954
 XXYZ=             -0.0385 YYXZ=            -12.9603 ZZXY=             -0.0550
 N-N= 7.136454694767D-01 E-N=-3.625899994397D+00  KE= 1.121885563155D+00
 Calling FoFJK, ICntrl=  10002127 FMM=F ISym2X=0 I1Cent= 0 IOpClX= 0 NMat=1 NMatS=1 NMatT=0.
 Cartesian Forces:  Max     0.001504890 RMS     0.000382653
 CPIOFr:  IOpCl= 0 IRwI=-1 IRwCP=  731 ICalc=  3 LCPTot=      101349 Len1MO=      263944 IndFrg=     1157125
 Counterpoise: doing calculation for fragment   1 using the basis set of the fragment.
 Basis read from rwf:  (5D, 7F)
   230 basis functions,   370 primitive gaussians,   239 cartesian basis functions
    34 alpha electrons       34 beta electrons
       nuclear repulsion energy       447.3503058237 Hartrees.
 NAtoms=   17 NActive=   13 NUniq=   13 SFac= 1.00D+00 NAtFMM=   60 NAOKFM=F Big=F
 Integral buffers will be    131072 words long.
 Raffenetti 1 integral format.
 Two-electron integral symmetry is turned off.
 One-electron integrals computed using PRISM.
 NBasis=   230 RedAO= T EigKep=  1.61D-06  NBF=   230
 NBsUse=   230 1.00D-06 EigRej= -1.00D+00 NBFU=   230
 ExpMin= 1.46D-02 ExpMax= 4.39D+04 ExpMxC= 1.51D+03 IAcc=3 IRadAn=         5 AccDes= 0.00D+00
 Harris functional with IExCor=  205 and IRadAn=       5 diagonalized for initial guess.
 HarFok:  IExCor=  205 AccDes= 0.00D+00 IRadAn=         5 IDoV= 1 UseB2=F ITyADJ=14
 ICtDFT=  3500011 ScaDFX=  1.000000  1.000000  1.000000  1.000000
 FoFCou: FMM=F IPFlag=           0 FMFlag=      100000 FMFlg1=           0
         NFxFlg=           0 DoJE=T BraDBF=F KetDBF=T FulRan=T
         wScrn=  0.000000 ICntrl=       500 IOpCl=  0 I1Cent=   200000004 NGrid=           0
         NMat0=    1 NMatS0=      1 NMatT0=    0 NMatD0=    1 NMtDS0=    0 NMtDT0=    0
 Symmetry not used in FoFCou.
[...]
    A7        2.80391  -0.00000   0.00000   0.00916   0.00927   2.81318
    A8        2.81129  -0.00002   0.00000  -0.00902  -0.00890   2.80239
    A9        2.79173  -0.00003   0.00000  -0.00409  -0.00413   2.78760
   A10        2.82532   0.00000   0.00000   0.00521   0.00513   2.83045
   A11        2.26967  -0.00002   0.00000  -0.00691  -0.00693   2.26274
   A12        2.29065   0.00001   0.00000   0.00738   0.00732   2.29797
   A13        2.28391   0.00001   0.00000   0.00848   0.00853   2.29245
   A14        2.27511  -0.00002   0.00000  -0.00846  -0.00838   2.26673
   A15        2.56971  -0.00000   0.00000   0.00177   0.00178   2.57149
   A16        2.57558  -0.00000   0.00000  -0.00315  -0.00313   2.57246
    D1       -1.45236  -0.00000   0.00000  -0.00339  -0.00339  -1.45575
    D2        1.68923  -0.00000   0.00000  -0.00339  -0.00339   1.68584
    D3        1.45156  -0.00001   0.00000  -0.00239  -0.00240   1.44916
    D4       -1.69003  -0.00001   0.00000  -0.00239  -0.00240  -1.69243
    D5       -1.38400   0.00001   0.00000   0.00268   0.00269  -1.38131
    D6        1.15189  -0.00007   0.00000   0.00200   0.00233   1.15423
    D7        2.23015   0.00004   0.00000   0.00356   0.00325   2.23340
    D8        2.25549   0.00001   0.00000   0.01074   0.01074   2.26623
    D9        0.14027  -0.00000   0.00000   0.01016   0.01015   0.15041
   D10       -0.65895  -0.00000   0.00000   0.01075   0.01074  -0.64821
   D11        1.38480   0.00000   0.00000   0.00352   0.00352   1.38832
   D12       -1.17408   0.00004   0.00000  -0.02040  -0.02055  -1.19464
   D13       -2.25135  -0.00006   0.00000  -0.02016  -0.02004  -2.27139
   D14       -2.27586  -0.00001   0.00000   0.00844   0.00843  -2.26742
   D15       -0.16101   0.00001   0.00000   0.00754   0.00755  -0.15346
   D16        0.63837   0.00001   0.00000   0.00837   0.00837   0.64674
         Item               Value     Threshold  Converged?
 Maximum Force            0.000186     0.000450     YES
 RMS     Force            0.000038     0.000300     YES
 Maximum Displacement     0.033252     0.001800     NO 
 RMS     Displacement     0.007299     0.001200     NO 
 Predicted change in Energy=-2.070331D-06
                           ----------------------------
                           ! Non-Optimized Parameters !
                           ! (Angstroms and Degrees)  !
 --------------------------                            --------------------------
 ! Name  Definition              Value          Derivative Info.                !
 --------------------------------------------------------------------------------
 ! X1    R(1,-1)                -0.0246         -DE/DX =    0.0                 !
 ! Y1    R(1,-2)                 1.4001         -DE/DX =    0.0                 !
 ! Z1    R(1,-3)                 0.0            -DE/DX =    0.0                 !
 ! X2    R(2,-1)                -1.2375         -DE/DX =    0.0                 !
 ! Y2    R(2,-2)                 0.7005         -DE/DX =    0.0                 !
 ! Z2    R(2,-3)                 0.0            -DE/DX =    0.0                 !
 ! X3    R(3,-1)                -1.2375         -DE/DX =    0.0                 !
 ! Y3    R(3,-2)                -0.7004         -DE/DX =    0.0                 !
 ! Z3    R(3,-3)                 0.0            -DE/DX =    0.0                 !
 ! X4    R(4,-1)                -0.0246         -DE/DX =    0.0                 !
 ! Y4    R(4,-2)                -1.4001         -DE/DX =    0.0                 !
 ! Z4    R(4,-3)                 0.0            -DE/DX =    0.0                 !
 ! X5    R(5,-1)                 1.2001         -DE/DX =    0.0                 !
 ! Y5    R(5,-2)                -0.7184         -DE/DX =    0.0                 !
 ! Z5    R(5,-3)                 0.0            -DE/DX =    0.0                 !
 ! X6    R(6,-1)                 1.2            -DE/DX =    0.0                 !
 ! Y6    R(6,-2)                 0.7182         -DE/DX =    0.0                 !
 ! Z6    R(6,-3)                 0.0            -DE/DX =    0.0                 !
 ! X7    R(7,-1)                 2.3832         -DE/DX =    0.0                 !
 ! Y7    R(7,-2)                 1.407          -DE/DX =    0.0                 !
 ! Z7    R(7,-3)                 0.0            -DE/DX =    0.0                 !
 ! X8    R(8,-1)                 2.3833         -DE/DX =    0.0                 !
 ! Y8    R(8,-2)                -1.4071         -DE/DX =    0.0                 !
 ! Z8    R(8,-3)                 0.0            -DE/DX =    0.0                 !
 ! X9    R(9,-1)                -2.1759         -DE/DX =    0.0                 !
 ! Y9    R(9,-2)                -1.2491         -DE/DX =    0.0                 !
 ! Z9    R(9,-3)                 0.0            -DE/DX =    0.0                 !
 ! X10   R(10,-1)               -2.1758         -DE/DX =    0.0                 !
 ! Y10   R(10,-2)                1.2492         -DE/DX =    0.0                 !
 ! Z10   R(10,-3)                0.0            -DE/DX =    0.0                 !
 ! X11   R(11,-1)                3.6216         -DE/DX =    0.0                 !
 ! Y11   R(11,-2)                0.0            -DE/DX =    0.0                 !
 ! Z11   R(11,-3)                0.0            -DE/DX =    0.0                 !
 ! X12   R(12,-1)                0.0011         -DE/DX =    0.0                 !
 ! Y12   R(12,-2)                2.4871         -DE/DX =    0.0                 !
 ! Z12   R(12,-3)                0.0            -DE/DX =    0.0                 !
 ! X13   R(13,-1)                0.0009         -DE/DX =    0.0                 !
 ! Y13   R(13,-2)               -2.4872         -DE/DX =    0.0                 !
 ! Z13   R(13,-3)                0.0            -DE/DX =    0.0                 !
 ! R1    R(5,16)                 2.8771         -DE/DX =    0.0                 !
 ! R2    R(6,16)                 2.8719         -DE/DX =    0.0                 !
 ! R3    R(11,14)                2.2197         -DE/DX =    0.0                 !
 ! R4    R(11,15)                2.2206         -DE/DX =    0.0                 !
 ! R5    R(14,15)                0.7478         -DE/DX =    0.0002              !
 ! R6    R(16,17)                0.7414         -DE/DX =   -0.0001              !
 ! A1    A(4,5,16)             108.2845         -DE/DX =    0.0                 !
 ! A2    A(8,5,16)              86.4971         -DE/DX =    0.0                 !
 ! A3    A(11,5,16)             73.6727         -DE/DX =    0.0                 !
 ! A4    A(1,6,16)             108.1098         -DE/DX =    0.0                 !
 ! A5    A(7,6,16)              86.2841         -DE/DX =    0.0                 !
 ! A6    A(11,6,16)             73.7642         -DE/DX =    0.0                 !
 ! A7    A(5,11,14)            161.1832         -DE/DX =    0.0                 !
 ! A8    A(5,11,15)            160.5652         -DE/DX =    0.0                 !
 ! A9    A(6,11,14)            159.718          -DE/DX =    0.0                 !
 ! A10   A(6,11,15)            162.1731         -DE/DX =    0.0                 !
 ! A11   A(7,11,14)            129.6453         -DE/DX =    0.0                 !
 ! A12   A(7,11,15)            131.6639         -DE/DX =    0.0                 !
 ! A13   A(8,11,14)            131.3476         -DE/DX =    0.0                 !
 ! A14   A(8,11,15)            129.874          -DE/DX =    0.0                 !
 ! A15   A(5,16,17)            147.3356         -DE/DX =    0.0                 !
 ! A16   A(6,16,17)            147.391          -DE/DX =    0.0                 !
 ! D1    D(2,1,6,16)           -83.4082         -DE/DX =    0.0                 !
 ! D2    D(12,1,6,16)           96.5918         -DE/DX =    0.0                 !
 ! D3    D(3,4,5,16)            83.0309         -DE/DX =    0.0                 !
 ! D4    D(13,4,5,16)          -96.9691         -DE/DX =    0.0                 !
 ! D5    D(16,5,11,7)          -79.1434         -DE/DX =    0.0                 !
 ! D6    D(16,5,11,14)          66.1322         -DE/DX =   -0.0001              !
 ! D7    D(16,5,11,15)         127.9646         -DE/DX =    0.0                 !
 ! D8    D(4,5,16,17)          129.8452         -DE/DX =    0.0                 !
 ! D9    D(8,5,16,17)            8.6181         -DE/DX =    0.0                 !
 ! D10   D(11,5,16,17)         -37.1396         -DE/DX =    0.0                 !
 ! D11   D(16,6,11,8)           79.5451         -DE/DX =    0.0                 !
 ! D12   D(16,6,11,14)         -68.4476         -DE/DX =    0.0                 !
 ! D13   D(16,6,11,15)        -130.141          -DE/DX =   -0.0001              !
 ! D14   D(1,6,16,17)         -129.9139         -DE/DX =    0.0                 !
 ! D15   D(7,6,16,17)           -8.7929         -DE/DX =    0.0                 !
 ! D16   D(11,6,16,17)          37.0554         -DE/DX =    0.0                 !
 --------------------------------------------------------------------------------
 GradGradGradGradGradGradGradGradGradGradGradGradGradGradGradGradGradGrad


 ----------------------------------------------------------------------

 Electric dipole moment (input orientation):
 (Debye = 10**-18 statcoulomb cm , SI units = C m)
                  (au)            (Debye)         (10**-30 SI)
   Tot        0.367600D+01      0.934347D+01      0.311664D+02
   x          0.367581D+01      0.934297D+01      0.311648D+02
   y          0.434472D-04      0.110432D-03      0.368360D-03
   z         -0.378967D-01     -0.963237D-01     -0.321301D+00

 Dipole polarizability, Alpha (input orientation).
 (esu units = cm**3 , SI units = C**2 m**2 J**-1)
 Alpha(0;0):
               (au)            (10**-24 esu)      (10**-40 SI)
   iso        0.103351D+03      0.153151D+02      0.170403D+02
   aniso      0.647118D+02      0.958929D+01      0.106695D+02
   xx         0.144103D+03      0.213539D+02      0.237594D+02
   yx        -0.262682D-01     -0.389255D-02     -0.433105D-02
   yy         0.946445D+02      0.140249D+02      0.156048D+02
   zx         0.375906D+01      0.557035D+00      0.619785D+00
   zy         0.172026D+00      0.254916D-01      0.283633D-01
   zz         0.713060D+02      0.105665D+02      0.117568D+02

 ----------------------------------------------------------------------

 Dipole orientation:
     6          0.00044755          2.64575319         -0.04644407
     6          0.02409248          1.32370549         -2.33838104
     6          0.02412464         -1.32347956         -2.33846524
     6          0.00051166         -2.64586168         -0.04659543
     6         -0.02336347         -1.35765735          2.26770864
     6         -0.02339499          1.35723091          2.26765381
     8         -0.04646115          2.65879277          4.50347621
     8         -0.04639903         -2.65913655          4.50354752
     1          0.04241742         -2.36039835         -4.11159455
     1          0.04236034          2.36072710         -4.11147072
    12         -0.07055399         -0.00010251          6.84342309
     1         -0.00007851          4.69999073          0.00222673
     1          0.00003807         -4.70014573          0.00169613
     1         -0.90389579          0.03024466         10.95290759
     1          0.50599259         -0.03288425         10.99896096
     1         -5.15361796          0.00195622          3.39686493
     1         -6.19597945         -0.00641988          4.33331075

 Electric dipole moment (dipole orientation):
 (Debye = 10**-18 statcoulomb cm , SI units = C m)
                  (au)            (Debye)         (10**-30 SI)
   Tot        0.367600D+01      0.934347D+01      0.311664D+02
   x          0.000000D+00      0.000000D+00      0.000000D+00
   y          0.000000D+00      0.000000D+00      0.000000D+00
   z          0.367600D+01      0.934347D+01      0.311664D+02

 Dipole polarizability, Alpha (dipole orientation).
 (esu units = cm**3 , SI units = C**2 m**2 J**-1)
 Alpha(0;0):
               (au)            (10**-24 esu)      (10**-40 SI)
   iso        0.103351D+03      0.153151D+02      0.170403D+02
   aniso      0.647118D+02      0.958929D+01      0.106695D+02
   xx         0.713913D+02      0.105791D+02      0.117708D+02
   yx        -0.171971D+00     -0.254834D-01     -0.283541D-01
   yy         0.946445D+02      0.140249D+02      0.156048D+02
   zx        -0.450870D+01     -0.668121D+00     -0.743384D+00
   zy        -0.286777D-01     -0.424959D-02     -0.472831D-02
   zz         0.144018D+03      0.213413D+02      0.237453D+02

 ----------------------------------------------------------------------
 Unable to Open any file for archive entry.
 1\1\GINC-GPU17\Freq\RMP2-FC\6-311+G(d,p)\C6H8Mg1O2\X2848A03\12-Sep-202
 4\0\\#N Geom=AllCheck Guess=TCheck SCRF=Check GenChk RMP2(FC)/6-311+G(
 d,p) Freq\\one_3_frag\\0,1\C,-0.024595,1.400072,0.\C,-1.237492,0.70046
 ,0.\C,-1.23752,-0.70037,0.\C,-0.024642,-1.40013,0.\C,1.200092,-0.71842
 7,0.\C,1.200046,0.71823,0.\O,2.383247,1.407001,0.\O,2.383318,-1.407126
 ,0.\H,-2.175863,-1.249095,0.\H,-2.175827,1.249217,0.\Mg,3.621576,-0.00
 0011,0.\H,0.001149,2.487128,0.\H,0.000927,-2.48721,0.\H,5.800652,0.016
 079,0.418543\H,5.81733,-0.017336,-0.327749\H,1.825563,0.001089,2.70850
 1\H,2.326769,-0.003331,3.254957\\Version=ES64L-G16RevC.01\HF=-1.132465
 1\MP2=-1.1602654\RMSD=0.000e+00\RMSF=5.404e-05\ZeroPoint=0.0251259\The
 rmal=0.0331658\ETot=-582.5314608\HTot=-582.5305166\GTot=-582.5755062\D
 ipole=3.6758071,0.0000434,-0.0378967\DipoleDeriv=0.,0.,0.,0.,0.,0.,0.,
 0.,0.,0.,0.,0.,0.,0.,0.,0.,0.,0.,0.,0.,0.,0.,0.,0.,0.,0.,0.,0.,0.,0.,0
 .,0.,0.,0.,0.,0.,0.,0.,0.,0.,0.,0.,0.,0.,0.,0.,0.,0.,0.,0.,0.,0.,0.,0.
 ,0.,0.,0.,0.,0.,0.,0.,0.,0.,0.,0.,0.,0.,0.,0.,0.,0.,0.,0.,0.,0.,0.,0.,
 0.,0.,0.,0.,0.,0.,0.,0.,0.,0.,0.,0.,0.,0.,0.,0.,0.,0.,0.,0.,0.,0.,0.,0
 .,0.,0.,0.,0.,0.,0.,0.,0.,0.,0.,0.,0.,0.,0.,0.,0.,-0.0593307,0.0035512
 ,0.0879097,0.0081488,0.0386593,0.0010572,0.1460496,0.0008155,0.0704623
 ,-0.0512613,-0.0035311,-0.0916141,-0.0081297,0.0380447,0.0009219,-0.15
 24092,0.0006907,0.0605116,0.0598439,-0.0001148,0.0694476,-0.0001362,-0
 .0018396,-0.0000674,0.0599413,0.0000367,0.0714864,-0.0532533,0.000111,
 -0.0300515,0.0001009,-0.0025653,0.0000514,-0.0218336,-0.0000134,-0.049
 6167\Polar=144.1031402,-0.0262682,94.6445167,3.7590585,0.1720262,71.30
 60278\PG=C01 [X(C6H8Mg1O2)]\NImag=1\\0.,0.,0.,0.,0.,0.,0.,0.,0.,0.,0.,
 0.,0.,0.,0.,0.,0.,0.,0.,0.,0.,0.,0.,0.,0.,0.,0.,0.,0.,0.,0.,0.,0.,0.,0
 .,0.,0.,0.,0.,0.,0.,0.,0.,0.,0.,0.,0.,0.,0.,0.,0.,0.,0.,0.,0.,0.,0.,0.
 ,0.,0.,0.,0.,0.,0.,0.,0.,0.,0.,0.,0.,0.,0.,0.,0.,0.,0.,0.,0.,0.,0.,0.,
 0.,0.,0.,0.,0.,0.,0.,0.,0.,0.,0.,0.,0.,0.,0.,0.,0.,0.,0.,0.,0.,0.,0.,0
 .,0.,0.,0.,0.,0.,0.,0.,0.,0.,0.,0.,0.,0.,0.,0.,0.,0.,0.,0.,0.,0.,0.,0.
 ,0.,0.,0.,0.,0.,0.,0.,0.,0.,0.,0.,0.,0.,0.,0.,0.,0.,0.,0.,0.,0.,0.,0.,
 0.,0.,0.,0.,0.,0.,0.,0.,0.,0.,0.,0.,0.,0.,0.,0.,0.,0.,0.,0.,0.,0.,0.,0
 .,0.,0.,0.,0.,0.,0.,0.,0.,0.,0.,0.,0.,0.,0.,0.,0.,0.,0.,0.,0.,0.,0.,0.
 ,0.,0.,0.,0.,0.,0.,0.,0.,0.,0.,0.,0.,0.,0.,0.,0.,0.,0.,0.,0.,0.,0.,0.,
 0.,0.,0.,0.,0.,0.,0.,0.,0.,0.,0.,0.,0.,0.,0.,0.,0.,0.,0.,0.,0.,0.,0.,0
 .,0.,0.,0.,0.,0.,0.,0.,0.,0.,0.,0.,0.,0.,0.,0.,0.,0.,0.,0.,0.,0.,0.,0.
 ,0.,0.,0.,0.,0.,0.,0.,0.,0.,0.,0.,0.,0.,0.,0.,0.,0.,0.,0.,0.,0.,0.,0.,
 0.,0.,0.,0.,0.,0.,0.,0.,0.,0.,0.,0.,0.,0.,0.,0.,0.,0.,0.,0.,0.,0.,0.,0
 .,0.,0.,0.,0.,0.,0.,0.,0.,0.,0.,0.,0.,0.,0.,0.,0.,0.,0.,0.,0.,0.,0.,0.
 ,0.,0.,0.,0.,0.,0.,0.,0.,0.,0.,0.,0.,0.,0.,0.,0.,0.,0.,0.,0.,0.,0.,0.,
 0.,0.,0.,0.,0.,0.,0.,0.,0.,0.,0.,0.,0.,0.,0.,0.,0.,0.,0.,0.,0.,0.,0.,0
 .,0.,0.,0.,0.,0.,0.,0.,0.,0.,0.,0.,0.,0.,0.,0.,0.,0.,0.,0.,0.,0.,0.,0.
 ,0.,0.,0.,0.,0.,0.,0.,0.,0.,0.,0.,0.,0.,0.,0.,0.,0.,0.,0.,0.,0.,0.,0.,
 0.,0.,0.,0.,0.,0.,0.,0.,0.,0.,0.,0.,0.,0.,0.,0.,0.,0.,0.,0.,0.,0.,0.,0
 .,0.,0.,0.,0.,0.,0.,0.,0.,0.,0.,0.,0.,0.,0.,0.,0.,0.,0.,0.,0.,0.,0.,0.
 ,0.,0.,0.,0.,0.,0.,0.,0.,0.,0.,0.,0.,0.,0.,0.,0.,0.,0.,0.,0.,0.,0.,0.,
 0.,0.,0.,0.,0.,0.,0.,0.,0.,0.,0.,0.,0.,0.,0.,0.,0.,0.,0.,0.,0.,0.,0.,0
 .,0.,0.,0.,0.,0.,0.,0.,0.,0.,0.,0.,0.,0.,0.,0.,0.,0.,0.,0.,0.,0.,0.,0.
 ,0.,0.,0.,0.,0.,0.,0.,0.,0.,0.,0.,0.,0.,0.,0.,0.,0.,0.,0.,0.,0.,0.,0.,
 0.,0.,0.,0.,0.,0.,0.,0.,0.,0.,0.,0.,0.,0.,0.,0.,0.,0.,0.,0.,0.,0.,0.,0
 .,0.,0.,0.,0.,0.,0.,0.,0.,0.,0.,0.,0.,0.,0.,0.,0.,0.,0.,0.,0.,0.,0.,0.
 ,0.,0.,0.,0.,0.,0.,0.,0.,0.,0.,0.,0.,0.,0.,0.,0.,0.,0.,0.,0.,0.,0.,0.,
 0.,0.,0.,0.,0.,0.,0.,0.,0.,0.,0.,0.,0.,0.,0.,0.,0.,0.,0.,0.,0.,0.,0.,0
 .,0.,0.,0.,0.,0.,0.,0.,0.,0.,0.,0.,0.,0.,0.,0.,0.,0.,0.,0.,0.,0.,0.,0.
 ,0.,0.,0.,0.,0.,0.,0.,0.,0.,0.,0.,0.,0.,0.,0.,0.,0.,0.,0.,0.,0.,0.,0.,
 0.,0.,0.,0.,0.,0.,0.,0.,0.,0.,0.,0.,0.,0.,0.,0.,0.,0.,0.,0.,0.,0.,0.,0
 .,0.,0.,0.,0.,0.,0.,0.,0.,0.,0.,0.,0.,0.,0.,0.,0.,0.,0.,0.,0.,0.,0.,0.
 ,0.,0.,0.,0.,0.,0.,0.,0.,0.,0.,0.,0.,0.,0.,0.,0.,0.,0.,0.,0.,0.,0.,0.,
 0.,0.,0.,0.,0.,0.,0.,0.,0.,0.,0.,0.,0.,0.,0.,0.,0.,0.,0.,0.,0.,0.,0.,0
 .,0.,0.,0.,0.,0.,0.,0.,0.,0.,0.,0.,0.,0.,0.,0.01520881,0.,0.,0.,0.,0.,
 0.,0.,0.,0.,0.,0.,0.,0.,0.,0.,0.,0.,0.,0.,0.,0.,0.,0.,0.,0.,0.,0.,0.,0
 .,0.,0.,0.,0.,0.,0.,0.,0.,0.,0.,-0.00026869,0.00031983,0.,0.,0.,0.,0.,
 0.,0.,0.,0.,0.,0.,0.,0.,0.,0.,0.,0.,0.,0.,0.,0.,0.,0.,0.,0.,0.,0.,0.,0
 .,0.,0.,0.,0.,0.,0.,0.,0.,0.,0.,-0.00576338,0.01658300,0.36998365,0.,0
 .,0.,0.,0.,0.,0.,0.,0.,0.,0.,0.,0.,0.,0.,0.,0.,0.,0.,0.,0.,0.,0.,0.,0.
 ,0.,0.,0.,0.,0.,0.,0.,0.,0.,0.,0.,0.,0.,0.,-0.00749525,0.00028456,0.00
 612219,0.01534779,0.,0.,0.,0.,0.,0.,0.,0.,0.,0.,0.,0.,0.,0.,0.,0.,0.,0
 .,0.,0.,0.,0.,0.,0.,0.,0.,0.,0.,0.,0.,0.,0.,0.,0.,0.,0.,0.,0.,0.,0.000
 46164,-0.00017763,-0.01654818,-0.00048167,0.00034845,0.,0.,0.,0.,0.,0.
 ,0.,0.,0.,0.,0.,0.,0.,0.,0.,0.,0.,0.,0.,0.,0.,0.,0.,0.,0.,0.,0.,0.,0.,
 0.,0.,0.,0.,0.,0.,0.,0.,0.,0.,0.01005747,-0.01655228,-0.36900774,-0.01
 011262,0.01657989,0.36982587,0.,0.,0.,0.,0.,0.,0.,0.,0.,0.,0.,0.,0.,0.
 ,0.,0.,0.,0.,0.,0.,0.,0.,0.,0.,0.,0.,0.,0.,0.,0.,0.,0.,0.,0.,0.,0.,0.,
 0.,0.,-0.00001366,0.00000018,0.00000664,0.00000230,-0.00000028,-0.0000
 2002,0.17629134,0.,0.,0.,0.,0.,0.,0.,0.,0.,0.,0.,0.,0.,0.,0.,0.,0.,0.,
 0.,0.,0.,0.,0.,0.,0.,0.,0.,0.,0.,0.,0.,0.,0.,0.,0.,0.,0.,0.,0.,0.00000
 017,-0.00000623,-0.00000035,0.00000014,-0.00000083,0.00000008,-0.00154
 430,0.00044912,0.,0.,0.,0.,0.,0.,0.,0.,0.,0.,0.,0.,0.,0.,0.,0.,0.,0.,0
 .,0.,0.,0.,0.,0.,0.,0.,0.,0.,0.,0.,0.,0.,0.,0.,0.,0.,0.,0.,0.,-0.00003
 930,-0.00000049,0.00004040,-0.00003095,0.00000085,-0.00001334,0.188906
 63,-0.00167715,0.20895355,0.,0.,0.,0.,0.,0.,0.,0.,0.,0.,0.,0.,0.,0.,0.
 ,0.,0.,0.,0.,0.,0.,0.,0.,0.,0.,0.,0.,0.,0.,0.,0.,0.,0.,0.,0.,0.,0.,0.,
 0.,0.00001451,0.00000037,-0.00000919,0.00000597,-0.00000046,-0.0000020
 6,-0.17572468,0.00154151,-0.18914896,0.17557820,0.,0.,0.,0.,0.,0.,0.,0
 .,0.,0.,0.,0.,0.,0.,0.,0.,0.,0.,0.,0.,0.,0.,0.,0.,0.,0.,0.,0.,0.,0.,0.
 ,0.,0.,0.,0.,0.,0.,0.,0.,0.00000003,0.00000219,0.00000017,-0.00000015,
 0.00000245,0.00000004,0.00154091,-0.00042185,0.00168168,-0.00154056,0.
 00082494,0.,0.,0.,0.,0.,0.,0.,0.,0.,0.,0.,0.,0.,0.,0.,0.,0.,0.,0.,0.,0
 .,0.,0.,0.,0.,0.,0.,0.,0.,0.,0.,0.,0.,0.,0.,0.,0.,0.,0.,0.00000963,0.0
 0000040,-0.00002486,0.00002405,-0.00000082,-0.00000320,-0.18965310,0.0
 0168419,-0.20837490,0.19011493,-0.00168624,0.20972691\\0.,0.,0.,0.,0.,
 0.,0.,0.,0.,0.,0.,0.,0.,0.,0.,0.,0.,0.,0.,0.,0.,0.,0.,0.,0.,0.,0.,0.,0
 .,0.,0.,0.,0.,0.,0.,0.,0.,0.,0.,-0.00000238,-0.00003137,-0.00026101,-0
 .00001462,0.00003007,0.00026446,-0.00004304,0.00000329,-0.00005667,0.0
 0004053,-0.00000590,0.00004511\\\@
 The archive entry for this job was punched.


 WHAT THE SLIME CONTAINS, THE GLOWING REVEALS
 BY THE FLAME'S BRIGHT HUE WHEN YOU IGNITE IT.
   --  LEONARD THURNEYSSER, 1531-1596
 DESCRIBING HIS FLAME PHOTOLYSIS ANALYTIC METHOD
 Job cpu time:       0 days  9 hours 14 minutes 38.0 seconds.
 Elapsed time:       0 days  0 hours 55 minutes 48.7 seconds.
 File lengths (MBytes):  RWF=  21235 Int=      0 D2E=      0 Chk=     21 Scr=      1
 Normal termination of Gaussian 16 at Thu Sep 12 15:10:24 2024.
