 Entering Gaussian System, Link 0=g16
 Input=two_3_frag_2.gjf
 Output=two_3_frag_2.log
 Initial command:
 /apps/applications/G16/g16.c01/l1.exe "/scratch/x2848a03/calculation/H2_COF/H2_cate_opt/Gau-36694.inp" -scrdir="/scratch/x2848a03/calculation/H2_COF/H2_cate_opt/"
 Default CPUs for threads: 5-9,25-29
 Default is to use a total of  10 processors:
                               10 via shared-memory
                                1 via Linda
 Entering Link 1 = /apps/applications/G16/g16.c01/l1.exe PID=     36695.
  
 Copyright (c) 1988-2019, Gaussian, Inc.  All Rights Reserved.
  
 This is part of the Gaussian(R) 16 program.  It is based on
 the Gaussian(R) 09 system (copyright 2009, Gaussian, Inc.),
 the Gaussian(R) 03 system (copyright 2003, Gaussian, Inc.),
 the Gaussian(R) 98 system (copyright 1998, Gaussian, Inc.),
 the Gaussian(R) 94 system (copyright 1995, Gaussian, Inc.),
 the Gaussian 92(TM) system (copyright 1992, Gaussian, Inc.),
 the Gaussian 90(TM) system (copyright 1990, Gaussian, Inc.),
 the Gaussian 88(TM) system (copyright 1988, Gaussian, Inc.),
 the Gaussian 86(TM) system (copyright 1986, Carnegie Mellon
 University), and the Gaussian 82(TM) system (copyright 1983,
 Carnegie Mellon University). Gaussian is a federally registered
 trademark of Gaussian, Inc.
  
 This software contains proprietary and confidential information,
 including trade secrets, belonging to Gaussian, Inc.
  
 This software is provided under written license and may be
 used, copied, transmitted, or stored only in accord with that
 written license.
  
 The following legend is applicable only to US Government
 contracts under FAR:
  
                    RESTRICTED RIGHTS LEGEND
  
 Use, reproduction and disclosure by the US Government is
 subject to restrictions as set forth in subparagraphs (a)
 and (c) of the Commercial Computer Software - Restricted
 Rights clause in FAR 52.227-19.
  
 Gaussian, Inc.
 340 Quinnipiac St., Bldg. 40, Wallingford CT 06492
  
  
 ---------------------------------------------------------------
 Warning -- This program may not be used in any manner that
 competes with the business of Gaussian, Inc. or will provide
 assistance to any competitor of Gaussian, Inc.  The licensee
 of this program is prohibited from giving any competitor of
 Gaussian, Inc. access to this program.  By using this program,
 the user acknowledges that Gaussian, Inc. is engaged in the
 business of creating and licensing software in the field of
 computational chemistry and represents and warrants to the
 licensee that it is not a competitor of Gaussian, Inc. and that
 it will not use this program in any manner prohibited above.
 ---------------------------------------------------------------
  

 Cite this work as:
 Gaussian 16, Revision C.01,
 M. J. Frisch, G. W. Trucks, H. B. Schlegel, G. E. Scuseria, 
 M. A. Robb, J. R. Cheeseman, G. Scalmani, V. Barone, 
 G. A. Petersson, H. Nakatsuji, X. Li, M. Caricato, A. V. Marenich, 
 J. Bloino, B. G. Janesko, R. Gomperts, B. Mennucci, H. P. Hratchian, 
 J. V. Ortiz, A. F. Izmaylov, J. L. Sonnenberg, D. Williams-Young, 
 F. Ding, F. Lipparini, F. Egidi, J. Goings, B. Peng, A. Petrone, 
 T. Henderson, D. Ranasinghe, V. G. Zakrzewski, J. Gao, N. Rega, 
 G. Zheng, W. Liang, M. Hada, M. Ehara, K. Toyota, R. Fukuda, 
 J. Hasegawa, M. Ishida, T. Nakajima, Y. Honda, O. Kitao, H. Nakai, 
 T. Vreven, K. Throssell, J. A. Montgomery, Jr., J. E. Peralta, 
 F. Ogliaro, M. J. Bearpark, J. J. Heyd, E. N. Brothers, K. N. Kudin, 
 V. N. Staroverov, T. A. Keith, R. Kobayashi, J. Normand, 
 K. Raghavachari, A. P. Rendell, J. C. Burant, S. S. Iyengar, 
 J. Tomasi, M. Cossi, J. M. Millam, M. Klene, C. Adamo, R. Cammi, 
 J. W. Ochterski, R. L. Martin, K. Morokuma, O. Farkas, 
 J. B. Foresman, and D. J. Fox, Gaussian, Inc., Wallingford CT, 2019.
 
 ******************************************
 Gaussian 16:  ES64L-G16RevC.01  3-Jul-2019
                12-Sep-2024 
 ******************************************
 SetSPE:  set environment variable "MP_BIND" = "yes"
 SetSPE:  set environment variable "MP_BLIST" = "5,6,7,8,9,25,26,27,28,29"
 Will use    1 GPUs:
 Thread  CPU   GPU
      0    5     0
      1    6    -1
      2    7    -1
      3    8    -1
      4    9    -1
      5   25    -1
      6   26    -1
      7   27    -1
      8   28    -1
      9   29    -1
 SetGPE:  set environment variable "MP_BIND" = "yes"
 SetGPE:  set environment variable "MP_BLIST" = "5,6,7,8,9,25,26,27,28,29"
 Properties for Device   0
 Minimum vector length:                              32
 Maximum vector length:                            1024
 Number of SMPs:                                     80
 Maximum number of threads per SMP:                2048
 Number of ASync Engines:                             7
 Memory:                                           3193987072
   2874588364 words of memory will be used on each GPU.
 -------------------------------------------------
 # opt freq MP2/6-311+g(d,p) nosymm counterpoise=3
 -------------------------------------------------
 1/18=20,19=15,38=1,62=3/1,3;
 2/9=110,12=2,15=1,17=6,18=5,40=1/2;
 1/18=20,19=15,38=1,53=2,62=3,63=101/22;
 3/5=4,6=6,7=111,11=9,25=1,30=1,71=1/1,2,3;
 4//1;
 5/5=2,38=5/2;
 8/6=4,10=2/1;
 9/15=2,16=-3/6;
 10/5=1,31=1/2;
 6/7=2,8=2,9=2,10=2/1;
 7/7=1,12=2,30=1,33=-1/1,2,3,16;
 1/18=20,19=15,53=2,62=3,63=101/22;
 3/5=7,6=11,7=111,11=9,25=1,30=1,71=1,82=7/1,2,3;
 4//1;
 5/5=2,38=5/2;
 8/6=4,10=2/1;
 9/15=2,16=-3/6;
 10/5=1,31=1/2;
 6/7=2,8=2,9=2,10=2/1;
 7/7=1,12=2,30=1,33=-1/1,2,3,16;
 1/18=20,19=15,53=2,62=3,63=101/22(-8);
 7/9=1,44=-1,126=2/16;
 1/18=20,19=15,62=3/3(2);
 2/9=110,15=1/2;
 99//99;
 2/9=110,15=1/2;
 1/18=20,19=15,53=3,62=3,63=101/22;
 3/5=7,6=11,7=111,11=9,25=1,30=1,71=1,82=7/1,2,3;
 4/5=5,16=3,69=1/1;
 5/5=2,38=5/2;
 8/6=4,10=2/1;
 9/15=2,16=-3/6;
 10/5=1,31=1/2;
 7/7=1,12=2,30=1,33=-1/1,2,3,16;
 1/18=20,19=15,53=3,62=3,63=101/22(-7);
 7/9=1,44=-1,126=2/16;
 1/18=20,19=15,62=3/3(-11);
 2/9=110,15=1/2;
 99/9=10/99;
 ------------
 two_3_frag_2
 ------------
 Symbolic Z-matrix:
 Charge =  0 Multiplicity = 1 in supermolecule
 Charge =  0 Multiplicity = 1 in fragment      1.
 Charge =  0 Multiplicity = 1 in fragment      2.
 Charge =  0 Multiplicity = 1 in fragment      3.
 C(Fragment=1)        -1    0.01266   1.39677  -0.00023 
 C(Fragment=1)        -1    1.23752   0.71703   0.00001 
 C(Fragment=1)        -1    1.23753  -0.71621   0.00003 
 C(Fragment=1)        -1    0.01293  -1.39652  0. 
 C(Fragment=1)        -1   -1.21169  -0.71675  -0.00001 
 C(Fragment=1)        -1   -1.2117    0.71641   0.0001 
 O(Fragment=1)        -1   -2.3964    1.43378   0. 
 O(Fragment=1)        -1   -2.39637  -1.43413   0. 
 O(Fragment=1)        -1    2.42358  -1.42067   0.00004 
 O(Fragment=1)        -1    2.42379   1.42117   0.00029 
 Mg(Fragment=1)       -1   -3.59434  -0.00015   0. 
 Mg(Fragment=1)       -1    3.63966   0.       -0.0002 
 H(Fragment=1)        -1    0.01158   2.48375  -0.00003 
 H(Fragment=1)        -1    0.01224  -2.48349   0.00001 
 H(Fragment=2)        0     5.52679  -1.33842   0.00175 
 H(Fragment=2)        0     4.9412   -1.8044    0.00198 
 H(Fragment=3)        0     5.52674   1.33833   0.00146 
 H(Fragment=3)        0     4.94111   1.80427   0.00184 
 
 Add virtual bond connecting atoms H17        and Mg12       Dist= 4.37D+00.
 Add virtual bond connecting atoms H18        and Mg12       Dist= 4.20D+00.
 Add virtual bond connecting atoms H15        and Mg12       Dist= 4.37D+00.
 Add virtual bond connecting atoms H16        and Mg12       Dist= 4.20D+00.

 GradGradGradGradGradGradGradGradGradGradGradGradGradGradGradGradGradGrad
 Berny optimization.
 Initialization pass.
                           ----------------------------
                           !    Initial Parameters    !
                           ! (Angstroms and Degrees)  !
 --------------------------                            --------------------------
 ! Name  Definition              Value          Derivative Info.                !
 --------------------------------------------------------------------------------
 ! X1    R(1,-1)                 0.0127         Frozen                          !
 ! Y1    R(1,-2)                 1.3968         Frozen                          !
 ! Z1    R(1,-3)                -0.0002         Frozen                          !
 ! X2    R(2,-1)                 1.2375         Frozen                          !
 ! Y2    R(2,-2)                 0.717          Frozen                          !
 ! Z2    R(2,-3)                 0.0            Frozen                          !
 ! X3    R(3,-1)                 1.2375         Frozen                          !
 ! Y3    R(3,-2)                -0.7162         Frozen                          !
 ! Z3    R(3,-3)                 0.0            Frozen                          !
 ! X4    R(4,-1)                 0.0129         Frozen                          !
 ! Y4    R(4,-2)                -1.3965         Frozen                          !
 ! Z4    R(4,-3)                 0.0            Frozen                          !
 ! X5    R(5,-1)                -1.2117         Frozen                          !
 ! Y5    R(5,-2)                -0.7168         Frozen                          !
 ! Z5    R(5,-3)                 0.0            Frozen                          !
 ! X6    R(6,-1)                -1.2117         Frozen                          !
 ! Y6    R(6,-2)                 0.7164         Frozen                          !
 ! Z6    R(6,-3)                 0.0001         Frozen                          !
 ! X7    R(7,-1)                -2.3964         Frozen                          !
 ! Y7    R(7,-2)                 1.4338         Frozen                          !
 ! Z7    R(7,-3)                 0.0            Frozen                          !
 ! X8    R(8,-1)                -2.3964         Frozen                          !
 ! Y8    R(8,-2)                -1.4341         Frozen                          !
 ! Z8    R(8,-3)                 0.0            Frozen                          !
 ! X9    R(9,-1)                 2.4236         Frozen                          !
 ! Y9    R(9,-2)                -1.4207         Frozen                          !
 ! Z9    R(9,-3)                 0.0            Frozen                          !
 ! X10   R(10,-1)                2.4238         Frozen                          !
 ! Y10   R(10,-2)                1.4212         Frozen                          !
 ! Z10   R(10,-3)                0.0003         Frozen                          !
 ! X11   R(11,-1)               -3.5943         Frozen                          !
 ! Y11   R(11,-2)               -0.0002         Frozen                          !
 ! Z11   R(11,-3)                0.0            Frozen                          !
 ! X12   R(12,-1)                3.6397         Frozen                          !
 ! Y12   R(12,-2)                0.0            Frozen                          !
 ! Z12   R(12,-3)               -0.0002         Frozen                          !
 ! X13   R(13,-1)                0.0116         Frozen                          !
 ! Y13   R(13,-2)                2.4838         Frozen                          !
 ! Z13   R(13,-3)                0.0            Frozen                          !
 ! X14   R(14,-1)                0.0122         Frozen                          !
 ! Y14   R(14,-2)               -2.4835         Frozen                          !
 ! Z14   R(14,-3)                0.0            Frozen                          !
 ! R1    R(12,15)                2.3136         estimate D2E/DX2                !
 ! R2    R(12,16)                2.2248         estimate D2E/DX2                !
 ! R3    R(12,17)                2.3135         estimate D2E/DX2                !
 ! R4    R(12,18)                2.2247         estimate D2E/DX2                !
 ! R5    R(15,16)                0.7484         estimate D2E/DX2                !
 ! R6    R(17,18)                0.7484         estimate D2E/DX2                !
 ! A1    A(2,12,15)            161.2743         estimate D2E/DX2                !
 ! A2    A(2,12,16)            142.4234         estimate D2E/DX2                !
 ! A3    A(2,12,17)            128.0356         estimate D2E/DX2                !
 ! A4    A(2,12,18)            109.1836         estimate D2E/DX2                !
 ! A5    A(3,12,15)            128.0519         estimate D2E/DX2                !
 ! A6    A(3,12,16)            109.201          estimate D2E/DX2                !
 ! A7    A(3,12,17)            161.258          estimate D2E/DX2                !
 ! A8    A(3,12,18)            142.4061         estimate D2E/DX2                !
 ! A9    A(9,12,15)             95.2175         estimate D2E/DX2                !
 ! A10   A(9,12,16)             76.3666         estimate D2E/DX2                !
 ! A11   A(10,12,17)            95.204          estimate D2E/DX2                !
 ! A12   A(10,12,18)            76.352          estimate D2E/DX2                !
 ! A13   A(15,12,17)            70.69           estimate D2E/DX2                !
 ! A14   A(15,12,18)            89.542          estimate D2E/DX2                !
 ! A15   A(16,12,17)            89.5409         estimate D2E/DX2                !
 ! A16   A(16,12,18)           108.3928         estimate D2E/DX2                !
 ! A17   L(9,12,17,2,-1)       194.0925         estimate D2E/DX2                !
 ! A18   L(9,12,18,2,-1)       175.2405         estimate D2E/DX2                !
 ! A19   L(10,12,15,3,-1)      194.1059         estimate D2E/DX2                !
 ! A20   L(10,12,16,3,-1)      175.255          estimate D2E/DX2                !
 ! A21   L(9,12,17,2,-2)       179.9381         estimate D2E/DX2                !
 ! A22   L(9,12,18,2,-2)       179.9367         estimate D2E/DX2                !
 ! A23   L(10,12,15,3,-2)      180.0793         estimate D2E/DX2                !
 ! A24   L(10,12,16,3,-2)      180.0755         estimate D2E/DX2                !
 ! D1    D(6,1,12,15)           -0.175          estimate D2E/DX2                !
 ! D2    D(6,1,12,16)           -0.0838         estimate D2E/DX2                !
 ! D3    D(6,1,12,17)         -179.9327         estimate D2E/DX2                !
 ! D4    D(6,1,12,18)         -179.9275         estimate D2E/DX2                !
 ! D5    D(13,1,12,15)         179.7951         estimate D2E/DX2                !
 ! D6    D(13,1,12,16)         179.8863         estimate D2E/DX2                !
 ! D7    D(13,1,12,17)           0.0375         estimate D2E/DX2                !
 ! D8    D(13,1,12,18)           0.0427         estimate D2E/DX2                !
 ! D9    D(5,4,12,15)          179.9432         estimate D2E/DX2                !
 ! D10   D(5,4,12,16)          179.944          estimate D2E/DX2                !
 ! D11   D(5,4,12,17)            0.181          estimate D2E/DX2                !
 ! D12   D(5,4,12,18)            0.1036         estimate D2E/DX2                !
 ! D13   D(14,4,12,15)          -0.0604         estimate D2E/DX2                !
 ! D14   D(14,4,12,16)          -0.0596         estimate D2E/DX2                !
 ! D15   D(14,4,12,17)        -179.8226         estimate D2E/DX2                !
 ! D16   D(14,4,12,18)        -179.9            estimate D2E/DX2                !
 --------------------------------------------------------------------------------
 Trust Radius=3.00D-01 FncErr=1.00D-07 GrdErr=1.00D-07 EigMax=2.50D+02 EigMin=1.00D-04
 Number of steps in this run=     98 maximum allowed number of steps=    108.
 GradGradGradGradGradGradGradGradGradGradGradGradGradGradGradGradGradGrad

                          Input orientation:                          
 ---------------------------------------------------------------------
 Center     Atomic      Atomic             Coordinates (Angstroms)
 Number     Number       Type             X           Y           Z
 ---------------------------------------------------------------------
      1          6           0        0.012663    1.396773   -0.000233
      2          6           0        1.237517    0.717029    0.000010
      3          6           0        1.237526   -0.716213    0.000025
      4          6           0        0.012927   -1.396516   -0.000001
      5          6           0       -1.211686   -0.716754   -0.000010
      6          6           0       -1.211697    0.716410    0.000103
      7          8           0       -2.396395    1.433780    0.000000
      8          8           0       -2.396365   -1.434125    0.000000
      9          8           0        2.423579   -1.420667    0.000041
     10          8           0        2.423791    1.421170    0.000289
     11         12           0       -3.594341   -0.000150    0.000001
     12         12           0        3.639658    0.000004   -0.000200
     13          1           0        0.011577    2.483752   -0.000032
     14          1           0        0.012239   -2.483487    0.000008
     15          1           0        5.526789   -1.338420    0.001745
     16          1           0        4.941199   -1.804401    0.001984
     17          1           0        5.526738    1.338326    0.001459
     18          1           0        4.941114    1.804273    0.001841
 ---------------------------------------------------------------------
                    Distance matrix (angstroms):
                    1          2          3          4          5
     1  C    0.000000
     2  C    1.400828   0.000000
     3  C    2.442335   1.433242   0.000000
     4  C    2.793289   2.442682   1.400876   0.000000
     5  C    2.442545   2.838015   2.449212   1.400626   0.000000
     6  C    1.400697   2.449214   2.837446   2.442163   1.433164
     7  O    2.409342   3.703923   4.222304   3.716908   2.455266
     8  O    3.717176   4.222862   3.704128   2.409586   1.384950
     9  O    3.708165   2.444686   1.379484   2.410773   3.702789
    10  O    2.411251   1.379515   2.444510   3.708318   4.217513
    11  Mg   3.868058   4.884792   4.884638   3.868103   2.488085
    12  Mg   3.886651   2.506872   2.506632   3.886315   4.904007
    13  H    1.086980   2.150404   3.426766   3.880268   3.426312
    14  H    3.880260   3.427041   2.150485   1.086971   2.149265
    15  H    6.155231   4.756336   4.334158   5.514168   6.767091
    16  H    5.876903   4.480499   3.860227   4.945123   6.248278
    17  H    5.514385   4.333985   4.755888   6.154793   7.044836
    18  H    4.945269   3.859888   4.479890   5.876400   6.649250
                    6          7          8          9         10
     6  C    0.000000
     7  O    1.384965   0.000000
     8  O    2.455247   2.867905   0.000000
     9  O    4.216910   5.601787   4.819963   0.000000
    10  O    3.703169   4.820203   5.602376   2.841837   0.000000
    11  Mg   2.488062   1.868483   1.868537   6.183302   6.183693
    12  Mg   4.903966   6.204003   6.204055   1.870068   1.870306
    13  H    2.149395   2.626932   4.598689   4.589362   2.635879
    14  H    3.425983   4.598532   2.627267   2.635175   4.589328
    15  H    7.044822   8.394161   7.923732   3.104300   4.152582
    16  H    6.649257   8.020356   7.346901   2.546697   4.091657
    17  H    6.767074   7.923708   8.394167   4.152305   3.104053
    18  H    6.248242   7.346857   8.020338   4.091237   2.546308
                   11         12         13         14         15
    11  Mg   0.000000
    12  Mg   7.233999   0.000000
    13  H    4.378631   4.396814   0.000000
    14  H    4.378856   4.396123   4.967239   0.000000
    15  H    9.218784   2.313579   6.710184   5.632179   0.000000
    16  H    8.724149   2.224835   6.533715   4.975521   0.748368
    17  H    9.218764   2.313478   5.632850   6.709393   2.676746
    18  H    8.724101   2.224675   4.976146   6.532894   3.196801
                   16         17         18
    16  H    0.000000
    17  H    3.196809   0.000000
    18  H    3.608674   0.748373   0.000000
 Symmetry turned off by external request.
 Stoichiometry    C6H6Mg2O4
 Framework group  C1[X(C6H6Mg2O4)]
 Deg. of freedom    48
 Full point group                 C1      NOp   1
 Rotational constants (GHZ):           2.2517780           0.4286628           0.3601100
 Counterpoise: doing full-system calculation.
 Standard basis: 6-311+G(d,p) (5D, 7F)
   316 basis functions,   508 primitive gaussians,   328 cartesian basis functions
    49 alpha electrons       49 beta electrons
       nuclear repulsion energy       796.0011216105 Hartrees.
 NAtoms=   18 NActive=   18 NUniq=   18 SFac= 1.00D+00 NAtFMM=   60 NAOKFM=F Big=F
 Integral buffers will be    131072 words long.
 Raffenetti 1 integral format.
 Two-electron integral symmetry is turned off.
 One-electron integrals computed using PRISM.
 NBasis=   316 RedAO= T EigKep=  3.29D-06  NBF=   316
 NBsUse=   315 1.00D-06 EigRej=  8.41D-07 NBFU=   315
 ExpMin= 1.46D-02 ExpMax= 4.39D+04 ExpMxC= 1.51D+03 IAcc=3 IRadAn=         5 AccDes= 0.00D+00
 Harris functional with IExCor=  205 and IRadAn=       5 diagonalized for initial guess.
 HarFok:  IExCor=  205 AccDes= 0.00D+00 IRadAn=         5 IDoV= 1 UseB2=F ITyADJ=14
 ICtDFT=  3500011 ScaDFX=  1.000000  1.000000  1.000000  1.000000
 FoFCou: FMM=F IPFlag=           0 FMFlag=      100000 FMFlg1=           0
         NFxFlg=           0 DoJE=T BraDBF=F KetDBF=T FulRan=T
         wScrn=  0.000000 ICntrl=       500 IOpCl=  0 I1Cent=   200000004 NGrid=           0
         NMat0=    1 NMatS0=      1 NMatT0=    0 NMatD0=    1 NMtDS0=    0 NMtDT0=    0
 Symmetry not used in FoFCou.
 Requested convergence on RMS density matrix=1.00D-08 within 128 cycles.
 Requested convergence on MAX density matrix=1.00D-06.
 Requested convergence on             energy=1.00D-06.
 No special actions if energy rises.
 SCF Done:  E(RHF) =  -929.479036141     A.U. after   16 cycles
            NFock= 16  Conv=0.38D-08     -V/T= 2.0012
 ExpMin= 1.46D-02 ExpMax= 4.39D+04 ExpMxC= 1.51D+03 IAcc=3 IRadAn=         5 AccDes= 0.00D+00
 HarFok:  IExCor=  205 AccDes= 0.00D+00 IRadAn=         5 IDoV=-2 UseB2=F ITyADJ=14
 ICtDFT= 12500011 ScaDFX=  1.000000  1.000000  1.000000  1.000000
 Range of M.O.s used for correlation:    21   315
 NBasis=   316 NAE=    49 NBE=    49 NFC=    20 NFV=     0
 NROrb=    295 NOA=    29 NOB=    29 NVA=   266 NVB=   266

 **** Warning!!: The largest alpha MO coefficient is  0.94785153D+02

 Fully direct method using O(ONN) memory.
 JobTyp=1 Pass  1:  I=  21 to  49 NPSUse= 10 ParTrn=T ParDer=T DoDerP=T.
 Spin components of T(2) and E(2):
     alpha-alpha T2 =       0.7966469161D-01 E2=     -0.2357288491D+00
     alpha-beta  T2 =       0.4057101589D+00 E2=     -0.1258730418D+01
     beta-beta   T2 =       0.7966469161D-01 E2=     -0.2357288491D+00
 ANorm=    0.1251015404D+01
 E2 =    -0.1730188117D+01 EUMP2 =    -0.93120922425715D+03
          IDoAtm=000000000000001111
          Differentiating once with respect to electric field.
                with respect to dipole field.
          Differentiating once with respect to nuclear coordinates.
 Keep R1 ints in memory in canonical form, NReq=1272138382.
          There are     1 degrees of freedom in the 1st order CPHF.  IDoFFX=0 NUNeed=     1.
 LinEq1:  Iter=  0 NonCon=     1 RMS=4.07D-03 Max=1.07D-01 NDo=     1
 AX will form     1 AO Fock derivatives at one time.
 LinEq1:  Iter=  1 NonCon=     1 RMS=9.66D-04 Max=2.80D-02 NDo=     1
 LinEq1:  Iter=  2 NonCon=     1 RMS=4.39D-04 Max=1.35D-02 NDo=     1
 LinEq1:  Iter=  3 NonCon=     1 RMS=1.13D-04 Max=2.15D-03 NDo=     1
 LinEq1:  Iter=  4 NonCon=     1 RMS=4.89D-05 Max=1.57D-03 NDo=     1
 LinEq1:  Iter=  5 NonCon=     1 RMS=1.08D-05 Max=3.42D-04 NDo=     1
 LinEq1:  Iter=  6 NonCon=     1 RMS=3.04D-06 Max=7.52D-05 NDo=     1
 LinEq1:  Iter=  7 NonCon=     1 RMS=1.22D-06 Max=2.71D-05 NDo=     1
 LinEq1:  Iter=  8 NonCon=     1 RMS=4.17D-07 Max=1.43D-05 NDo=     1
 LinEq1:  Iter=  9 NonCon=     1 RMS=1.50D-07 Max=5.10D-06 NDo=     1
 LinEq1:  Iter= 10 NonCon=     1 RMS=6.20D-08 Max=3.17D-06 NDo=     1
 LinEq1:  Iter= 11 NonCon=     1 RMS=1.87D-08 Max=7.79D-07 NDo=     1
 LinEq1:  Iter= 12 NonCon=     1 RMS=7.74D-09 Max=3.10D-07 NDo=     1
 LinEq1:  Iter= 13 NonCon=     1 RMS=3.46D-09 Max=1.60D-07 NDo=     1
 LinEq1:  Iter= 14 NonCon=     1 RMS=1.11D-09 Max=7.03D-08 NDo=     1
 LinEq1:  Iter= 15 NonCon=     1 RMS=3.30D-10 Max=1.55D-08 NDo=     1
 LinEq1:  Iter= 16 NonCon=     1 RMS=9.86D-11 Max=2.86D-09 NDo=     1
 LinEq1:  Iter= 17 NonCon=     0 RMS=2.43D-11 Max=7.09D-10 NDo=     1
 Linear equations converged to 1.000D-10 1.000D-09 after    17 iterations.
 End of Minotr F.D. properties file   721 does not exist.
 End of Minotr F.D. properties file   722 does not exist.
 End of Minotr F.D. properties file   788 does not exist.

 **********************************************************************

            Population analysis using the SCF Density.

 **********************************************************************

 Alpha  occ. eigenvalues --  -49.07199 -49.05425 -20.47889 -20.47887 -20.47307
 Alpha  occ. eigenvalues --  -20.47305 -11.22305 -11.22204 -11.22147 -11.22047
 Alpha  occ. eigenvalues --  -11.15973 -11.15971  -3.80397  -3.78694  -2.32693
 Alpha  occ. eigenvalues --   -2.32639  -2.32472  -2.31021  -2.30986  -2.30838
 Alpha  occ. eigenvalues --   -1.28180  -1.27605  -1.24530  -1.24209  -1.03801
 Alpha  occ. eigenvalues --   -0.92532  -0.88065  -0.76487  -0.71529  -0.70965
 Alpha  occ. eigenvalues --   -0.68374  -0.63352  -0.60125  -0.57502  -0.53366
 Alpha  occ. eigenvalues --   -0.52891  -0.51893  -0.51578  -0.49515  -0.49216
 Alpha  occ. eigenvalues --   -0.45330  -0.44154  -0.43677  -0.41830  -0.39766
 Alpha  occ. eigenvalues --   -0.39257  -0.34679  -0.24599  -0.19532
 Alpha virt. eigenvalues --   -0.03588   0.01306   0.02825   0.02916   0.03039
 Alpha virt. eigenvalues --    0.03598   0.03881   0.04776   0.05723   0.06112
 Alpha virt. eigenvalues --    0.07593   0.08324   0.09176   0.09369   0.11156
 Alpha virt. eigenvalues --    0.13535   0.14506   0.14646   0.15065   0.16413
 Alpha virt. eigenvalues --    0.17291   0.18281   0.19042   0.19221   0.19529
 Alpha virt. eigenvalues --    0.19814   0.19978   0.21327   0.21695   0.22694
 Alpha virt. eigenvalues --    0.22822   0.22987   0.23337   0.23476   0.23855
 Alpha virt. eigenvalues --    0.24334   0.24339   0.24443   0.27021   0.27132
 Alpha virt. eigenvalues --    0.29152   0.29409   0.30396   0.30887   0.33111
 Alpha virt. eigenvalues --    0.33644   0.35148   0.35892   0.36931   0.38701
 Alpha virt. eigenvalues --    0.38729   0.38730   0.38892   0.39398   0.40368
 Alpha virt. eigenvalues --    0.41387   0.41609   0.42023   0.42911   0.43882
 Alpha virt. eigenvalues --    0.46016   0.46790   0.47400   0.48223   0.48653
 Alpha virt. eigenvalues --    0.49033   0.49488   0.51202   0.51350   0.52974
 Alpha virt. eigenvalues --    0.53467   0.54763   0.54899   0.55364   0.56314
 Alpha virt. eigenvalues --    0.56651   0.57872   0.58672   0.60858   0.61043
 Alpha virt. eigenvalues --    0.62201   0.63005   0.65289   0.65954   0.68163
 Alpha virt. eigenvalues --    0.68844   0.69620   0.71665   0.73697   0.77796
 Alpha virt. eigenvalues --    0.78062   0.78316   0.78395   0.79158   0.79308
 Alpha virt. eigenvalues --    0.83381   0.83517   0.83788   0.85455   0.86400
 Alpha virt. eigenvalues --    0.90575   0.91212   0.91283   0.92550   0.94554
 Alpha virt. eigenvalues --    0.94664   0.97357   0.99445   0.99953   1.01206
 Alpha virt. eigenvalues --    1.03258   1.05160   1.08058   1.09469   1.12627
 Alpha virt. eigenvalues --    1.17573   1.18313   1.19702   1.20795   1.25603
 Alpha virt. eigenvalues --    1.25746   1.27204   1.28639   1.30178   1.31372
 Alpha virt. eigenvalues --    1.32640   1.33259   1.35321   1.36319   1.41373
 Alpha virt. eigenvalues --    1.42133   1.43153   1.45099   1.49651   1.50665
 Alpha virt. eigenvalues --    1.52597   1.52672   1.54626   1.54750   1.56604
 Alpha virt. eigenvalues --    1.56677   1.57823   1.60799   1.61107   1.65952
 Alpha virt. eigenvalues --    1.70660   1.71018   1.78357   1.82108   1.82324
 Alpha virt. eigenvalues --    1.83667   1.86074   1.90215   1.92028   1.92689
 Alpha virt. eigenvalues --    2.00116   2.01274   2.02106   2.02126   2.05267
 Alpha virt. eigenvalues --    2.06947   2.08435   2.08754   2.09129   2.15116
 Alpha virt. eigenvalues --    2.17292   2.18668   2.22949   2.24177   2.25412
 Alpha virt. eigenvalues --    2.27374   2.29403   2.32474   2.35008   2.37008
 Alpha virt. eigenvalues --    2.38431   2.41218   2.41909   2.44300   2.50470
 Alpha virt. eigenvalues --    2.54221   2.57957   2.64812   2.67688   2.73130
 Alpha virt. eigenvalues --    2.80370   2.83573   2.95207   2.97953   3.03534
 Alpha virt. eigenvalues --    3.07264   3.09452   3.09607   3.13195   3.18915
 Alpha virt. eigenvalues --    3.19834   3.27388   3.29751   3.33859   3.36502
 Alpha virt. eigenvalues --    3.37008   3.39000   3.40675   3.45066   3.46624
 Alpha virt. eigenvalues --    3.48145   3.51111   3.52742   3.53775   3.55549
 Alpha virt. eigenvalues --    3.57090   3.57446   3.61292   3.63805   3.66184
 Alpha virt. eigenvalues --    3.66655   3.67933   3.68235   3.69901   3.72574
 Alpha virt. eigenvalues --    3.83817   3.86063   3.91095   3.93506   3.94683
 Alpha virt. eigenvalues --    4.01467   4.04700   4.12340   4.19369   4.24167
 Alpha virt. eigenvalues --    4.62747   4.64538   4.69466   4.72333   4.74134
 Alpha virt. eigenvalues --    5.32464   5.65129   5.67332   5.69891   5.71655
 Alpha virt. eigenvalues --    5.79773   5.83644   5.90230   5.92426   6.14790
 Alpha virt. eigenvalues --    6.34071   6.35989   6.38437   6.41653   6.43359
 Alpha virt. eigenvalues --    6.66365   6.68792   6.75722   6.76775  24.79850
 Alpha virt. eigenvalues --   25.07090  25.10129  25.16420  25.30881  25.36688
 Alpha virt. eigenvalues --   51.71832  51.75309  51.79399  51.81730 105.77129
 Alpha virt. eigenvalues --  105.89446
          Condensed to atoms (all electrons):
               1          2          3          4          5          6
     1  C   24.140080   4.216596 -11.740246  -2.010626 -11.834931   5.145960
     2  C    4.216596  26.874280 -12.910389 -11.734602  -3.870231   2.586586
     3  C  -11.740246 -12.910389  26.882591   4.229227   2.588465  -3.886800
     4  C   -2.010626 -11.734602   4.229227  24.137998   5.132963 -11.837617
     5  C  -11.834931  -3.870231   2.588465   5.132963  28.100997 -15.081333
     6  C    5.145960   2.586586  -3.886800 -11.837617 -15.081333  28.108395
     7  O   -1.013311  -0.037775   0.104887   0.145611   0.903590  -0.171308
     8  O    0.145704   0.104765  -0.038129  -1.013267  -0.171013   0.903560
     9  O    0.101953   0.626259   0.044292  -0.873467  -0.020368   0.089076
    10  O   -0.873162   0.044912   0.625887   0.102026   0.088970  -0.020760
    11  Mg   0.090912  -0.046969  -0.047039   0.090836  -0.145071  -0.144059
    12  Mg   0.072855  -0.157147  -0.157003   0.072739   0.009233   0.009218
    13  H    0.329611   0.023191   0.025949  -0.036690   0.024439   0.007661
    14  H   -0.036682   0.025968   0.023249   0.329571   0.007608   0.024451
    15  H   -0.000367  -0.006966   0.008697   0.001539   0.001834  -0.000330
    16  H   -0.001129  -0.008730   0.018711   0.001999   0.003689  -0.000489
    17  H    0.001513   0.008647  -0.006898  -0.000347  -0.000330   0.001828
    18  H    0.001961   0.018629  -0.008616  -0.001105  -0.000491   0.003678
               7          8          9         10         11         12
     1  C   -1.013311   0.145704   0.101953  -0.873162   0.090912   0.072855
     2  C   -0.037775   0.104765   0.626259   0.044912  -0.046969  -0.157147
     3  C    0.104887  -0.038129   0.044292   0.625887  -0.047039  -0.157003
     4  C    0.145611  -1.013267  -0.873467   0.102026   0.090836   0.072739
     5  C    0.903590  -0.171013  -0.020368   0.088970  -0.145071   0.009233
     6  C   -0.171308   0.903560   0.089076  -0.020760  -0.144059   0.009218
     7  O    8.397098  -0.010964   0.000247  -0.000659   0.191619   0.001096
     8  O   -0.010964   8.397214  -0.000660   0.000246   0.191747   0.001095
     9  O    0.000247  -0.000660   8.412875  -0.001853   0.001076   0.163099
    10  O   -0.000659   0.000246  -0.001853   8.412949   0.001076   0.163154
    11  Mg   0.191619   0.191747   0.001076   0.001076  10.763972  -0.003688
    12  Mg   0.001096   0.001095   0.163099   0.163154  -0.003688  10.639303
    13  H   -0.003932   0.000012  -0.000034  -0.004998   0.001279   0.002611
    14  H    0.000013  -0.003922  -0.005012  -0.000034   0.001277   0.002615
    15  H    0.000000  -0.000000  -0.011661   0.001444  -0.000013   0.035644
    16  H    0.000000  -0.000002  -0.010593   0.001184  -0.000028   0.031226
    17  H   -0.000000   0.000000   0.001442  -0.011677  -0.000013   0.035659
    18  H   -0.000002   0.000000   0.001180  -0.010596  -0.000028   0.031232
              13         14         15         16         17         18
     1  C    0.329611  -0.036682  -0.000367  -0.001129   0.001513   0.001961
     2  C    0.023191   0.025968  -0.006966  -0.008730   0.008647   0.018629
     3  C    0.025949   0.023249   0.008697   0.018711  -0.006898  -0.008616
     4  C   -0.036690   0.329571   0.001539   0.001999  -0.000347  -0.001105
     5  C    0.024439   0.007608   0.001834   0.003689  -0.000330  -0.000491
     6  C    0.007661   0.024451  -0.000330  -0.000489   0.001828   0.003678
     7  O   -0.003932   0.000013   0.000000   0.000000  -0.000000  -0.000002
     8  O    0.000012  -0.003922  -0.000000  -0.000002   0.000000   0.000000
     9  O   -0.000034  -0.005012  -0.011661  -0.010593   0.001442   0.001180
    10  O   -0.004998  -0.000034   0.001444   0.001184  -0.011677  -0.010596
    11  Mg   0.001279   0.001277  -0.000013  -0.000028  -0.000013  -0.000028
    12  Mg   0.002611   0.002615   0.035644   0.031226   0.035659   0.031232
    13  H    0.510589   0.000022  -0.000000  -0.000000   0.000002  -0.000003
    14  H    0.000022   0.510593   0.000002  -0.000003  -0.000000  -0.000000
    15  H   -0.000000   0.000002   0.607603   0.381342  -0.001945  -0.001062
    16  H   -0.000000  -0.000003   0.381342   0.483117  -0.001062  -0.000422
    17  H    0.000002  -0.000000  -0.001945  -0.001062   0.607609   0.381335
    18  H   -0.000003  -0.000000  -0.001062  -0.000422   0.381335   0.483101
 Mulliken charges:
               1
     1  C   -0.736692
     2  C    0.242975
     3  C    0.243164
     4  C   -0.736787
     5  C    0.261982
     6  C    0.262283
     7  O   -0.506209
     8  O   -0.506387
     9  O   -0.517851
    10  O   -0.518107
    11  Mg   1.053112
    12  Mg   1.047063
    13  H    0.120291
    14  H    0.120285
    15  H   -0.015760
    16  H    0.101191
    17  H   -0.015762
    18  H    0.101209
 Sum of Mulliken charges =  -0.00000
 Mulliken charges with hydrogens summed into heavy atoms:
               1
     1  C   -0.616401
     2  C    0.242975
     3  C    0.243164
     4  C   -0.616502
     5  C    0.261982
     6  C    0.262283
     7  O   -0.506209
     8  O   -0.506387
     9  O   -0.517851
    10  O   -0.518107
    11  Mg   1.053112
    12  Mg   1.217940
         Mulliken charges condensed to fragments:
      1     -0.170877
      2      0.085431
      3      0.085447
 Electronic spatial extent (au):  <R**2>=           2852.5005
 Charge=             -0.0000 electrons
 Dipole moment (field-independent basis, Debye):
    X=              0.9538    Y=             -0.0015    Z=             -0.0005  Tot=              0.9538
 Quadrupole moment (field-independent basis, Debye-Ang):
   XX=             30.9613   YY=            -96.9871   ZZ=            -76.2939
   XY=             -0.0029   XZ=             -0.0015   YZ=             -0.0009
 Traceless Quadrupole moment (field-independent basis, Debye-Ang):
   XX=             78.4012   YY=            -49.5472   ZZ=            -28.8540
   XY=             -0.0029   XZ=             -0.0015   YZ=             -0.0009
 Octapole moment (field-independent basis, Debye-Ang**2):
  XXX=            -14.4747  YYY=             -0.0159  ZZZ=             -0.0199  XYY=             -4.6503
  XXY=             -0.0307  XXZ=              0.0026  XZZ=            -21.4876  YZZ=             -0.0054
  YYZ=              0.0015  XYZ=             -0.0038
 Hexadecapole moment (field-independent basis, Debye-Ang**3):
 XXXX=            -18.7926 YYYY=           -713.9601 ZZZZ=            -85.7987 XXXY=             -0.0607
 XXXZ=             -0.0197 YYYX=             -0.1197 YYYZ=             -0.0021 ZZZX=             -0.1078
 ZZZY=              0.0006 XXYY=           -663.1512 XXZZ=           -429.3380 YYZZ=           -138.9043
 XXYZ=             -0.0116 YYXZ=              0.0033 ZZXY=             -0.0200
 N-N= 7.960011216105D+02 E-N=-3.803913102928D+03  KE= 9.283915525044D+02
 Calling FoFJK, ICntrl=  10002127 FMM=F ISym2X=0 I1Cent= 0 IOpClX= 0 NMat=1 NMatS=1 NMatT=0.
 Cartesian Forces:  Max     0.000836603 RMS     0.000201598
 CPIOFr:  IOpCl= 0 IRwI=-1 IRwCP=  731 ICalc= -1 LCPTot=      154727 Len1MO=      406028 IndFrg=      154727
 CPIOFr:  IOpCl= 0 IRwI=-1 IRwCP=  731 ICalc=  0 LCPTot=      154727 Len1MO=      406028 IndFrg=      560755
 Counterpoise: doing calculation for fragment   1 using the basis set of the full-system, NewBq=T
 Basis read from rwf:  (5D, 7F)
   316 basis functions,   508 primitive gaussians,   328 cartesian basis functions
    47 alpha electrons       47 beta electrons
       nuclear repulsion energy       750.4916251627 Hartrees.
 NAtoms=   18 NActive=   18 NUniq=   18 SFac= 1.00D+00 NAtFMM=   60 NAOKFM=F Big=F
 Integral buffers will be    131072 words long.
 Raffenetti 1 integral format.
 Two-electron integral symmetry is turned off.
 One-electron integrals computed using PRISM.
 NBasis=   316 RedAO= T EigKep=  3.29D-06  NBF=   316
 NBsUse=   315 1.00D-06 EigRej=  8.41D-07 NBFU=   315
 ExpMin= 1.46D-02 ExpMax= 4.39D+04 ExpMxC= 1.51D+03 IAcc=3 IRadAn=         5 AccDes= 0.00D+00
 Harris functional with IExCor=  205 and IRadAn=       5 diagonalized for initial guess.
 HarFok:  IExCor=  205 AccDes= 0.00D+00 IRadAn=         5 IDoV= 1 UseB2=F ITyADJ=14
 ICtDFT=  3500011 ScaDFX=  1.000000  1.000000  1.000000  1.000000
 FoFCou: FMM=F IPFlag=           0 FMFlag=      100000 FMFlg1=           0
         NFxFlg=           0 DoJE=T BraDBF=F KetDBF=T FulRan=T
         wScrn=  0.000000 ICntrl=       500 IOpCl=  0 I1Cent=   200000004 NGrid=           0
         NMat0=    1 NMatS0=      1 NMatT0=    0 NMatD0=    1 NMtDS0=    0 NMtDT0=    0
 Symmetry not used in FoFCou.
 Requested convergence on RMS density matrix=1.00D-08 within 128 cycles.
 Requested convergence on MAX density matrix=1.00D-06.
 Requested convergence on             energy=1.00D-06.
 No special actions if energy rises.
 SCF Done:  E(RHF) =  -927.200769802     A.U. after   15 cycles
            NFock= 15  Conv=0.65D-08     -V/T= 2.0012
 ExpMin= 1.46D-02 ExpMax= 4.39D+04 ExpMxC= 1.51D+03 IAcc=3 IRadAn=         5 AccDes= 0.00D+00
 HarFok:  IExCor=  205 AccDes= 0.00D+00 IRadAn=         5 IDoV=-2 UseB2=F ITyADJ=14
 ICtDFT= 12500011 ScaDFX=  1.000000  1.000000  1.000000  1.000000
 Range of M.O.s used for correlation:    21   315
 NBasis=   316 NAE=    47 NBE=    47 NFC=    20 NFV=     0
 NROrb=    295 NOA=    27 NOB=    27 NVA=   268 NVB=   268

 **** Warning!!: The largest alpha MO coefficient is  0.10650831D+03

 Fully direct method using O(ONN) memory.
 JobTyp=1 Pass  1:  I=  21 to  47 NPSUse= 10 ParTrn=T ParDer=T DoDerP=T.
 Spin components of T(2) and E(2):
     alpha-alpha T2 =       0.7965899194D-01 E2=     -0.2353119587D+00
     alpha-beta  T2 =       0.3878944146D+00 E2=     -0.1202627311D+01
     beta-beta   T2 =       0.7965899194D-01 E2=     -0.2353119587D+00
 ANorm=    0.1243869928D+01
 E2 =    -0.1673251229D+01 EUMP2 =    -0.92887402103036D+03
          IDoAtm=000000000000001111
          Differentiating once with respect to electric field.
                with respect to dipole field.
          Differentiating once with respect to nuclear coordinates.
 Keep R1 ints in memory in canonical form, NReq=1272138382.
          There are     1 degrees of freedom in the 1st order CPHF.  IDoFFX=0 NUNeed=     1.
 LinEq1:  Iter=  0 NonCon=     1 RMS=4.21D-03 Max=1.23D-01 NDo=     1
 AX will form     1 AO Fock derivatives at one time.
 LinEq1:  Iter=  1 NonCon=     1 RMS=9.86D-04 Max=2.66D-02 NDo=     1
 LinEq1:  Iter=  2 NonCon=     1 RMS=4.44D-04 Max=1.34D-02 NDo=     1
 LinEq1:  Iter=  3 NonCon=     1 RMS=1.11D-04 Max=2.17D-03 NDo=     1
 LinEq1:  Iter=  4 NonCon=     1 RMS=4.68D-05 Max=1.55D-03 NDo=     1
 LinEq1:  Iter=  5 NonCon=     1 RMS=9.99D-06 Max=2.89D-04 NDo=     1
 LinEq1:  Iter=  6 NonCon=     1 RMS=2.86D-06 Max=7.28D-05 NDo=     1
 LinEq1:  Iter=  7 NonCon=     1 RMS=1.05D-06 Max=2.74D-05 NDo=     1
 LinEq1:  Iter=  8 NonCon=     1 RMS=3.55D-07 Max=1.13D-05 NDo=     1
 LinEq1:  Iter=  9 NonCon=     1 RMS=1.29D-07 Max=5.66D-06 NDo=     1
 LinEq1:  Iter= 10 NonCon=     1 RMS=5.76D-08 Max=2.67D-06 NDo=     1
 LinEq1:  Iter= 11 NonCon=     1 RMS=2.21D-08 Max=1.18D-06 NDo=     1
 LinEq1:  Iter= 12 NonCon=     1 RMS=6.69D-09 Max=2.44D-07 NDo=     1
 LinEq1:  Iter= 13 NonCon=     1 RMS=3.18D-09 Max=1.32D-07 NDo=     1
 LinEq1:  Iter= 14 NonCon=     1 RMS=1.36D-09 Max=5.97D-08 NDo=     1
 LinEq1:  Iter= 15 NonCon=     1 RMS=3.66D-10 Max=1.10D-08 NDo=     1
 LinEq1:  Iter= 16 NonCon=     1 RMS=9.60D-11 Max=1.96D-09 NDo=     1
 LinEq1:  Iter= 17 NonCon=     0 RMS=2.10D-11 Max=6.26D-10 NDo=     1
 Linear equations converged to 1.000D-10 1.000D-09 after    17 iterations.
 End of Minotr F.D. properties file   721 does not exist.
 End of Minotr F.D. properties file   722 does not exist.
 End of Minotr F.D. properties file   788 does not exist.

 **********************************************************************

            Population analysis using the SCF Density.

 **********************************************************************

 Alpha  occ. eigenvalues --  -49.07633 -49.07444 -20.48157 -20.48156 -20.48155
 Alpha  occ. eigenvalues --  -20.48154 -11.22661 -11.22621 -11.22561 -11.22521
 Alpha  occ. eigenvalues --  -11.16369 -11.16367  -3.80809  -3.80639  -2.33090
 Alpha  occ. eigenvalues --   -2.33056  -2.32937  -2.32889  -2.32881  -2.32715
 Alpha  occ. eigenvalues --   -1.28655  -1.28045  -1.24971  -1.24683  -1.04190
 Alpha  occ. eigenvalues --   -0.92909  -0.88441  -0.76870  -0.71679  -0.63801
 Alpha  occ. eigenvalues --   -0.60661  -0.58003  -0.53886  -0.53326  -0.52273
 Alpha  occ. eigenvalues --   -0.52048  -0.49983  -0.49668  -0.45769  -0.44653
 Alpha  occ. eigenvalues --   -0.44054  -0.42221  -0.40176  -0.39708  -0.35112
 Alpha  occ. eigenvalues --   -0.24981  -0.19964
 Alpha virt. eigenvalues --   -0.04004  -0.03719   0.02504   0.02846   0.02935
 Alpha virt. eigenvalues --    0.02952   0.03375   0.03519   0.05418   0.06202
 Alpha virt. eigenvalues --    0.07596   0.08254   0.08498   0.09261   0.10773
 Alpha virt. eigenvalues --    0.11102   0.14330   0.14818   0.17028   0.17109
 Alpha virt. eigenvalues --    0.17307   0.18119   0.18306   0.18914   0.19044
 Alpha virt. eigenvalues --    0.19737   0.20697   0.20828   0.21160   0.21933
 Alpha virt. eigenvalues --    0.22530   0.22772   0.23226   0.23253   0.23496
 Alpha virt. eigenvalues --    0.23990   0.24037   0.25424   0.26628   0.26675
 Alpha virt. eigenvalues --    0.26904   0.28685   0.29637   0.30314   0.30961
 Alpha virt. eigenvalues --    0.31628   0.33134   0.35335   0.35465   0.37368
 Alpha virt. eigenvalues --    0.37596   0.38525   0.38688   0.39106   0.39607
 Alpha virt. eigenvalues --    0.41406   0.41492   0.41938   0.42832   0.43781
 Alpha virt. eigenvalues --    0.45569   0.46753   0.47247   0.48167   0.48326
 Alpha virt. eigenvalues --    0.49110   0.49495   0.49584   0.51165   0.51295
 Alpha virt. eigenvalues --    0.52653   0.54398   0.54762   0.55478   0.55964
 Alpha virt. eigenvalues --    0.56296   0.57792   0.58414   0.60413   0.60624
 Alpha virt. eigenvalues --    0.60944   0.61390   0.64974   0.65714   0.68216
 Alpha virt. eigenvalues --    0.70385   0.73164   0.73212   0.74426   0.77406
 Alpha virt. eigenvalues --    0.77641   0.78739   0.78921   0.80213   0.81332
 Alpha virt. eigenvalues --    0.83068   0.83795   0.85190   0.86072   0.87465
 Alpha virt. eigenvalues --    0.90591   0.90911   0.90953   0.92613   0.94387
 Alpha virt. eigenvalues --    0.94467   0.96129   0.97045   0.99332   0.99561
 Alpha virt. eigenvalues --    1.02843   1.02994   1.04934   1.05707   1.08240
 Alpha virt. eigenvalues --    1.09181   1.12327   1.17458   1.18211   1.19434
 Alpha virt. eigenvalues --    1.20589   1.25521   1.25555   1.28945   1.31533
 Alpha virt. eigenvalues --    1.31759   1.33046   1.34427   1.36033   1.40992
 Alpha virt. eigenvalues --    1.41309   1.42664   1.43135   1.51153   1.51156
 Alpha virt. eigenvalues --    1.52719   1.52826   1.54307   1.55253   1.56485
 Alpha virt. eigenvalues --    1.57446   1.59484   1.59714   1.63785   1.66238
 Alpha virt. eigenvalues --    1.66769   1.70439   1.71305   1.81985   1.83045
 Alpha virt. eigenvalues --    1.89624   1.90327   1.91689   1.94481   2.00213
 Alpha virt. eigenvalues --    2.00242   2.01863   2.05183   2.07854   2.08806
 Alpha virt. eigenvalues --    2.10218   2.16377   2.18363   2.21909   2.22538
 Alpha virt. eigenvalues --    2.24907   2.27987   2.29011   2.29533   2.30182
 Alpha virt. eigenvalues --    2.33922   2.34658   2.34958   2.37178   2.38883
 Alpha virt. eigenvalues --    2.39390   2.40871   2.42133   2.49738   2.50185
 Alpha virt. eigenvalues --    2.54307   2.58072   2.64415   2.67424   2.72392
 Alpha virt. eigenvalues --    2.79864   2.82607   2.90254   2.94947   3.03023
 Alpha virt. eigenvalues --    3.06871   3.09101   3.09464   3.12790   3.18509
 Alpha virt. eigenvalues --    3.19438   3.26987   3.29321   3.33387   3.36211
 Alpha virt. eigenvalues --    3.36390   3.38576   3.40096   3.44779   3.45823
 Alpha virt. eigenvalues --    3.47360   3.50797   3.52354   3.53389   3.54841
 Alpha virt. eigenvalues --    3.60891   3.63346   3.65575   3.66331   3.67000
 Alpha virt. eigenvalues --    3.67391   3.69462   3.71843   3.83367   3.84572
 Alpha virt. eigenvalues --    3.87522   3.92221   3.93002   3.94171   4.00743
 Alpha virt. eigenvalues --    4.11937   4.18884   4.23248   4.28087   4.28259
 Alpha virt. eigenvalues --    4.62294   4.64164   4.69157   4.71820   4.73727
 Alpha virt. eigenvalues --    4.93605   4.95425   5.32075   5.64671   5.66828
 Alpha virt. eigenvalues --    5.69480   5.71110   5.79429   5.83013   5.89917
 Alpha virt. eigenvalues --    5.91769   6.14363   6.33599   6.35704   6.37893
 Alpha virt. eigenvalues --    6.41373   6.41414   6.66102   6.68513   6.73976
 Alpha virt. eigenvalues --    6.74973  24.79442  25.06685  25.09713  25.16003
 Alpha virt. eigenvalues --   25.30482  25.36287  51.71421  51.74611  51.79049
 Alpha virt. eigenvalues --   51.80970 105.76392 105.87762
          Condensed to atoms (all electrons):
               1          2          3          4          5          6
     1  C   24.306101   4.465082 -12.103355  -2.104960 -11.772920   5.145579
     2  C    4.465082  27.369618 -13.404883 -12.097647  -4.013261   2.809901
     3  C  -12.103355 -13.404883  27.378768   4.477156   2.811550  -4.029869
     4  C   -2.104960 -12.097647   4.477156  24.304965   5.132945 -11.776415
     5  C  -11.772920  -4.013261   2.811550   5.132945  27.795641 -14.905601
     6  C    5.145579   2.809901  -4.029869 -11.776415 -14.905601  27.804009
     7  O   -1.012433  -0.051537   0.113194   0.144104   0.889334  -0.148752
     8  O    0.144168   0.113086  -0.051879  -1.012440  -0.148423   0.889319
     9  O    0.113344   0.687832   0.035113  -0.925593  -0.046749   0.102072
    10  O   -0.925315   0.035768   0.687488   0.113361   0.101944  -0.047101
    11  Mg   0.094852  -0.037522  -0.037570   0.094819  -0.158382  -0.157393
    12  Mg   0.086355  -0.169124  -0.169037   0.086193   0.014192   0.014160
    13  H    0.327202   0.023856   0.027054  -0.036281   0.024744   0.007145
    14  H   -0.036272   0.027069   0.023913   0.327164   0.007089   0.024760
    15  H    0.000256   0.000143  -0.002583   0.000275  -0.000033   0.000010
    16  H   -0.000231  -0.001182   0.004961  -0.000083   0.000228   0.000039
    17  H    0.000276  -0.002568   0.000130   0.000256   0.000010  -0.000033
    18  H   -0.000086   0.004936  -0.001156  -0.000230   0.000039   0.000228
               7          8          9         10         11         12
     1  C   -1.012433   0.144168   0.113344  -0.925315   0.094852   0.086355
     2  C   -0.051537   0.113086   0.687832   0.035768  -0.037522  -0.169124
     3  C    0.113194  -0.051879   0.035113   0.687488  -0.037570  -0.169037
     4  C    0.144104  -1.012440  -0.925593   0.113361   0.094819   0.086193
     5  C    0.889334  -0.148423  -0.046749   0.101944  -0.158382   0.014192
     6  C   -0.148752   0.889319   0.102072  -0.047101  -0.157393   0.014160
     7  O    8.391555  -0.009812   0.000091  -0.000126   0.192324   0.001080
     8  O   -0.009812   8.391671  -0.000126   0.000090   0.192456   0.001079
     9  O    0.000091  -0.000126   8.372459  -0.002605   0.001008   0.162933
    10  O   -0.000126   0.000090  -0.002605   8.372519   0.001007   0.162989
    11  Mg   0.192324   0.192456   0.001008   0.001007  10.760070  -0.003625
    12  Mg   0.001080   0.001079   0.162933   0.162989  -0.003625  10.644300
    13  H   -0.003901   0.000009   0.000014  -0.004404   0.001332   0.002688
    14  H    0.000010  -0.003890  -0.004419   0.000014   0.001329   0.002692
    15  H    0.000000   0.000000  -0.001067   0.000049   0.000004  -0.000875
    16  H   -0.000000  -0.000001   0.004231  -0.000102  -0.000008   0.002585
    17  H    0.000000   0.000000   0.000050  -0.001072   0.000004  -0.000871
    18  H   -0.000001  -0.000000  -0.000104   0.004244  -0.000008   0.002579
              13         14         15         16         17         18
     1  C    0.327202  -0.036272   0.000256  -0.000231   0.000276  -0.000086
     2  C    0.023856   0.027069   0.000143  -0.001182  -0.002568   0.004936
     3  C    0.027054   0.023913  -0.002583   0.004961   0.000130  -0.001156
     4  C   -0.036281   0.327164   0.000275  -0.000083   0.000256  -0.000230
     5  C    0.024744   0.007089  -0.000033   0.000228   0.000010   0.000039
     6  C    0.007145   0.024760   0.000010   0.000039  -0.000033   0.000228
     7  O   -0.003901   0.000010   0.000000  -0.000000   0.000000  -0.000001
     8  O    0.000009  -0.003890   0.000000  -0.000001   0.000000  -0.000000
     9  O    0.000014  -0.004419  -0.001067   0.004231   0.000050  -0.000104
    10  O   -0.004404   0.000014   0.000049  -0.000102  -0.001072   0.004244
    11  Mg   0.001332   0.001329   0.000004  -0.000008   0.000004  -0.000008
    12  Mg   0.002688   0.002692  -0.000875   0.002585  -0.000871   0.002579
    13  H    0.507946   0.000022   0.000000  -0.000000   0.000002  -0.000011
    14  H    0.000022   0.507951   0.000002  -0.000011   0.000000  -0.000000
    15  H    0.000000   0.000002   0.000701  -0.000785   0.000087  -0.000071
    16  H   -0.000000  -0.000011  -0.000785   0.001392  -0.000071   0.000068
    17  H    0.000002   0.000000   0.000087  -0.000071   0.000702  -0.000785
    18  H   -0.000011  -0.000000  -0.000071   0.000068  -0.000785   0.001392
 Mulliken charges:
               1
     1  C   -0.727644
     2  C    0.240433
     3  C    0.241005
     4  C   -0.727589
     5  C    0.267652
     6  C    0.267942
     7  O   -0.505131
     8  O   -0.505309
     9  O   -0.498485
    10  O   -0.498748
    11  Mg   1.055303
    12  Mg   1.159706
    13  H    0.122582
    14  H    0.122577
    15  H    0.003886
    16  H   -0.011031
    17  H    0.003885
    18  H   -0.011036
 Sum of Mulliken charges =  -0.00000
 Mulliken charges with hydrogens summed into heavy atoms:
               1
     1  C   -0.605062
     2  C    0.240433
     3  C    0.241005
     4  C   -0.605012
     5  C    0.267652
     6  C    0.267942
     7  O   -0.505131
     8  O   -0.505309
     9  O   -0.498485
    10  O   -0.498748
    11  Mg   1.055303
    12  Mg   1.145411
         Mulliken charges condensed to fragments:
      1      0.014295
      2     -0.007145
      3     -0.007150
 Electronic spatial extent (au):  <R**2>=           2420.9261
 Charge=              0.0000 electrons
 Dipole moment (field-independent basis, Debye):
    X=              0.2394    Y=             -0.0015    Z=             -0.0017  Tot=              0.2394
 Quadrupole moment (field-independent basis, Debye-Ang):
   XX=             30.0902   YY=            -96.1355   ZZ=            -72.2441
   XY=             -0.0030   XZ=             -0.0076   YZ=             -0.0008
 Traceless Quadrupole moment (field-independent basis, Debye-Ang):
   XX=             76.1867   YY=            -50.0391   ZZ=            -26.1476
   XY=             -0.0030   XZ=             -0.0076   YZ=             -0.0008
 Octapole moment (field-independent basis, Debye-Ang**2):
  XXX=              7.7428  YYY=             -0.0159  ZZZ=              0.0001  XYY=             -0.6358
  XXY=             -0.0316  XXZ=             -0.0231  XZZ=             -0.9063  YZZ=             -0.0056
  YYZ=             -0.0008  XYZ=             -0.0031
 Hexadecapole moment (field-independent basis, Debye-Ang**3):
 XXXX=            351.8611 YYYY=           -673.1978 ZZZZ=            -81.7156 XXXY=             -0.0668
 XXXZ=             -0.0908 YYYX=             -0.1217 YYYZ=             -0.0033 ZZZX=             -0.0037
 ZZZY=             -0.0011 XXYY=           -623.7411 XXZZ=           -319.6276 YYZZ=           -128.2225
 XXYZ=             -0.0085 YYXZ=             -0.0048 ZZXY=             -0.0213
 N-N= 7.504916251627D+02 E-N=-3.708271915040D+03  KE= 9.260980121308D+02
 Calling FoFJK, ICntrl=  10002127 FMM=F ISym2X=0 I1Cent= 0 IOpClX= 0 NMat=1 NMatS=1 NMatT=0.
 Cartesian Forces:  Max     0.000269217 RMS     0.000084338
 CPIOFr:  IOpCl= 0 IRwI=-1 IRwCP=  731 ICalc=  1 LCPTot=      154727 Len1MO=      406028 IndFrg=      966783
 Counterpoise: doing calculation for fragment   2 using the basis set of the full-system, NewBq=T
 Basis read from rwf:  (5D, 7F)
   316 basis functions,   508 primitive gaussians,   328 cartesian basis functions
     1 alpha electrons        1 beta electrons
       nuclear repulsion energy         0.7071087025 Hartrees.
 NAtoms=   18 NActive=   18 NUniq=   18 SFac= 1.00D+00 NAtFMM=   60 NAOKFM=F Big=F
 Integral buffers will be    131072 words long.
 Raffenetti 1 integral format.
 Two-electron integral symmetry is turned off.
 One-electron integrals computed using PRISM.
 NBasis=   316 RedAO= T EigKep=  3.29D-06  NBF=   316
 NBsUse=   315 1.00D-06 EigRej=  8.41D-07 NBFU=   315
 ExpMin= 1.46D-02 ExpMax= 4.39D+04 ExpMxC= 1.51D+03 IAcc=3 IRadAn=         5 AccDes= 0.00D+00
 Harris functional with IExCor=  205 and IRadAn=       5 diagonalized for initial guess.
 HarFok:  IExCor=  205 AccDes= 0.00D+00 IRadAn=         5 IDoV= 1 UseB2=F ITyADJ=14
 ICtDFT=  3500011 ScaDFX=  1.000000  1.000000  1.000000  1.000000
 FoFCou: FMM=F IPFlag=           0 FMFlag=      100000 FMFlg1=           0
         NFxFlg=           0 DoJE=T BraDBF=F KetDBF=T FulRan=T
         wScrn=  0.000000 ICntrl=       500 IOpCl=  0 I1Cent=   200000004 NGrid=           0
         NMat0=    1 NMatS0=      1 NMatT0=    0 NMatD0=    1 NMtDS0=    0 NMtDT0=    0
 Symmetry not used in FoFCou.
 Requested convergence on RMS density matrix=1.00D-08 within 128 cycles.
 Requested convergence on MAX density matrix=1.00D-06.
 Requested convergence on             energy=1.00D-06.
 No special actions if energy rises.
 SCF Done:  E(RHF) =  -1.13246776966     A.U. after    7 cycles
            NFock=  7  Conv=0.11D-08     -V/T= 2.0157
 Range of M.O.s used for correlation:     1   315
 NBasis=   316 NAE=     1 NBE=     1 NFC=     0 NFV=     0
 NROrb=    315 NOA=     1 NOB=     1 NVA=   314 NVB=   314

 **** Warning!!: The largest alpha MO coefficient is  0.10618129D+03

 Fully direct method using O(ONN) memory.
 JobTyp=1 Pass  1:  I=   1 to   1 NPSUse= 10 ParTrn=T ParDer=T DoDerP=T.
 Spin components of T(2) and E(2):
     alpha-alpha T2 =       0.0000000000D+00 E2=      0.0000000000D+00
     alpha-beta  T2 =       0.9503482957D-02 E2=     -0.2828065653D-01
     beta-beta   T2 =       0.0000000000D+00 E2=      0.0000000000D+00
 ANorm=    0.1004740505D+01
 E2 =    -0.2828065653D-01 EUMP2 =    -0.11607484261844D+01
          IDoAtm=000000000000001111
          Differentiating once with respect to electric field.
                with respect to dipole field.
          Differentiating once with respect to nuclear coordinates.
 Keep R1 ints in memory in canonical form, NReq=1272138402.
          There are     1 degrees of freedom in the 1st order CPHF.  IDoFFX=0 NUNeed=     1.
 LinEq1:  Iter=  0 NonCon=     1 RMS=9.45D-04 Max=6.76D-03 NDo=     1
 AX will form     1 AO Fock derivatives at one time.
 LinEq1:  Iter=  1 NonCon=     1 RMS=4.59D-05 Max=4.51D-04 NDo=     1
 LinEq1:  Iter=  2 NonCon=     1 RMS=2.67D-06 Max=2.29D-05 NDo=     1
 LinEq1:  Iter=  3 NonCon=     1 RMS=1.14D-07 Max=9.50D-07 NDo=     1
 LinEq1:  Iter=  4 NonCon=     1 RMS=5.28D-09 Max=2.91D-08 NDo=     1
 LinEq1:  Iter=  5 NonCon=     1 RMS=3.79D-10 Max=2.04D-09 NDo=     1
 LinEq1:  Iter=  6 NonCon=     0 RMS=3.11D-11 Max=1.44D-10 NDo=     1
 Linear equations converged to 1.000D-10 1.000D-09 after     6 iterations.
 End of Minotr F.D. properties file   721 does not exist.
 End of Minotr F.D. properties file   722 does not exist.
 End of Minotr F.D. properties file   788 does not exist.

 **********************************************************************

            Population analysis using the SCF Density.

 **********************************************************************

 Alpha  occ. eigenvalues --   -0.59209
 Alpha virt. eigenvalues --    0.01502   0.02329   0.02686   0.02726   0.03327
 Alpha virt. eigenvalues --    0.03700   0.03721   0.04888   0.07276   0.08296
 Alpha virt. eigenvalues --    0.08841   0.09291   0.10462   0.10503   0.10772
 Alpha virt. eigenvalues --    0.11293   0.11750   0.12512   0.12741   0.12870
 Alpha virt. eigenvalues --    0.13330   0.15113   0.15325   0.16675   0.18095
 Alpha virt. eigenvalues --    0.18368   0.18905   0.19407   0.19836   0.20822
 Alpha virt. eigenvalues --    0.20937   0.22025   0.22909   0.23843   0.24153
 Alpha virt. eigenvalues --    0.24570   0.24964   0.25207   0.25959   0.26328
 Alpha virt. eigenvalues --    0.27190   0.28750   0.29475   0.29519   0.30404
 Alpha virt. eigenvalues --    0.31132   0.31767   0.32082   0.34095   0.34445
 Alpha virt. eigenvalues --    0.34901   0.35937   0.36208   0.36348   0.36362
 Alpha virt. eigenvalues --    0.36465   0.38306   0.40226   0.40736   0.41031
 Alpha virt. eigenvalues --    0.42769   0.44061   0.44619   0.45508   0.46728
 Alpha virt. eigenvalues --    0.46997   0.47439   0.49761   0.49961   0.50534
 Alpha virt. eigenvalues --    0.51537   0.52134   0.53864   0.55153   0.56302
 Alpha virt. eigenvalues --    0.58850   0.59521   0.60698   0.64631   0.65231
 Alpha virt. eigenvalues --    0.66654   0.67478   0.71395   0.71486   0.71890
 Alpha virt. eigenvalues --    0.73114   0.73847   0.74109   0.75110   0.76946
 Alpha virt. eigenvalues --    0.77355   0.77458   0.81390   0.82755   0.84962
 Alpha virt. eigenvalues --    0.85938   0.87943   0.88625   0.90491   0.90884
 Alpha virt. eigenvalues --    0.92479   0.95000   0.96555   0.96765   0.97353
 Alpha virt. eigenvalues --    0.97923   0.99034   0.99225   0.99894   1.00667
 Alpha virt. eigenvalues --    1.02438   1.03630   1.05032   1.10151   1.10546
 Alpha virt. eigenvalues --    1.10979   1.11515   1.15047   1.17548   1.18150
 Alpha virt. eigenvalues --    1.24676   1.26391   1.26663   1.27492   1.28308
 Alpha virt. eigenvalues --    1.29935   1.35181   1.35466   1.40400   1.40830
 Alpha virt. eigenvalues --    1.41912   1.43146   1.44118   1.46198   1.50696
 Alpha virt. eigenvalues --    1.53483   1.53731   1.57883   1.61139   1.62776
 Alpha virt. eigenvalues --    1.70660   1.72233   1.73108   1.73158   1.75488
 Alpha virt. eigenvalues --    1.80366   1.81689   1.82046   1.82570   1.86696
 Alpha virt. eigenvalues --    1.87671   1.90489   1.92396   1.95336   1.98549
 Alpha virt. eigenvalues --    1.99042   2.00406   2.08198   2.10363   2.10745
 Alpha virt. eigenvalues --    2.14596   2.15829   2.15840   2.19803   2.23370
 Alpha virt. eigenvalues --    2.23510   2.28010   2.30933   2.34996   2.38810
 Alpha virt. eigenvalues --    2.39262   2.42556   2.44850   2.45171   2.48479
 Alpha virt. eigenvalues --    2.49495   2.56537   2.58486   2.58897   2.60128
 Alpha virt. eigenvalues --    2.61497   2.68128   2.74022   2.76886   2.83087
 Alpha virt. eigenvalues --    2.83394   2.84536   2.88517   2.89791   2.92602
 Alpha virt. eigenvalues --    2.94094   2.95050   2.96054   2.99803   3.03950
 Alpha virt. eigenvalues --    3.05478   3.09350   3.09499   3.09891   3.13220
 Alpha virt. eigenvalues --    3.14305   3.24992   3.25191   3.26724   3.31930
 Alpha virt. eigenvalues --    3.34067   3.34995   3.36598   3.37242   3.41851
 Alpha virt. eigenvalues --    3.47252   3.48221   3.53941   3.54937   3.56222
 Alpha virt. eigenvalues --    3.65832   3.77364   3.90711   4.04176   4.08018
 Alpha virt. eigenvalues --    4.21338   4.23214   4.23553   4.27887   4.33439
 Alpha virt. eigenvalues --    4.37731   4.41016   4.45047   4.48304   4.60531
 Alpha virt. eigenvalues --    4.61642   4.62798   4.63146   4.80243   4.81663
 Alpha virt. eigenvalues --    4.85917   4.86371   4.87112   4.90633   4.91175
 Alpha virt. eigenvalues --    4.92349   4.95274   4.96515   5.01613   5.02446
 Alpha virt. eigenvalues --    5.04153   5.19814   5.39847   5.59621   5.61187
 Alpha virt. eigenvalues --    5.73873   5.90632   7.01742   7.03305   7.08834
 Alpha virt. eigenvalues --    7.10493   7.15130   7.23448   7.23845   7.37233
 Alpha virt. eigenvalues --    7.73588   7.74913   7.78551   7.83304   7.83499
 Alpha virt. eigenvalues --    7.83690   8.04407   8.06091   8.16368   8.26573
 Alpha virt. eigenvalues --    8.34535   8.96903   9.67329  10.11118  10.17911
 Alpha virt. eigenvalues --   10.18963  10.27098  10.29247  13.47987  13.50155
 Alpha virt. eigenvalues --   13.52721  13.54267  13.65670  13.69335  13.76156
 Alpha virt. eigenvalues --   13.77107  13.96031  14.07245  14.09665  14.11845
 Alpha virt. eigenvalues --   18.52005  18.58204  18.65994  18.69144  24.88816
 Alpha virt. eigenvalues --   24.89230  25.11076  25.12372  25.19636  25.19889
 Alpha virt. eigenvalues --   41.99328  42.05923  69.74132  69.91327  69.95187
 Alpha virt. eigenvalues --   69.95547  70.02851  70.05416 139.78394 139.79342
 Alpha virt. eigenvalues --  139.80819 139.81499 308.90619 309.04210
          Condensed to atoms (all electrons):
               1          2          3          4          5          6
     1  C    0.003534  -0.005166   0.007648  -0.001158  -0.009596   0.005509
     2  C   -0.005166   0.019009  -0.011250  -0.000508   0.008273  -0.004752
     3  C    0.007648  -0.011250   0.055978  -0.015574  -0.052122   0.024545
     4  C   -0.001158  -0.000508  -0.015574   0.005628   0.014251  -0.006230
     5  C   -0.009596   0.008273  -0.052122   0.014251   0.056307  -0.028365
     6  C    0.005509  -0.004752   0.024545  -0.006230  -0.028365   0.015231
     7  O   -0.000461   0.000526  -0.000817   0.000116   0.001207  -0.000749
     8  O    0.000228  -0.000338   0.001195  -0.000293  -0.001348   0.000662
     9  O   -0.000441   0.002677  -0.005898   0.000970   0.003185  -0.001348
    10  O    0.000228  -0.003155  -0.000237   0.000591   0.001525  -0.000899
    11  Mg  -0.000544   0.000577  -0.001718   0.000295   0.002198  -0.001192
    12  Mg   0.000050  -0.005199  -0.002876   0.001927   0.005102  -0.002749
    13  H    0.000112  -0.000082   0.000188  -0.000033  -0.000287   0.000195
    14  H    0.000030  -0.000043   0.000563  -0.000187  -0.000454   0.000167
    15  H    0.000367  -0.009101   0.008511   0.001351   0.000843  -0.000294
    16  H    0.000503  -0.011845   0.010350   0.002872   0.001973  -0.000622
    17  H   -0.000005   0.000066  -0.000027  -0.000003  -0.000004   0.000003
    18  H    0.000003  -0.000037   0.000013   0.000001   0.000001  -0.000001
               7          8          9         10         11         12
     1  C   -0.000461   0.000228  -0.000441   0.000228  -0.000544   0.000050
     2  C    0.000526  -0.000338   0.002677  -0.003155   0.000577  -0.005199
     3  C   -0.000817   0.001195  -0.005898  -0.000237  -0.001718  -0.002876
     4  C    0.000116  -0.000293   0.000970   0.000591   0.000295   0.001927
     5  C    0.001207  -0.001348   0.003185   0.001525   0.002198   0.005102
     6  C   -0.000749   0.000662  -0.001348  -0.000899  -0.001192  -0.002749
     7  O    0.000087  -0.000029   0.000020   0.000009   0.000054   0.000055
     8  O   -0.000029   0.000062  -0.000059  -0.000004  -0.000053  -0.000038
     9  O    0.000020  -0.000059   0.002675  -0.000303   0.000059  -0.000750
    10  O    0.000009  -0.000004  -0.000303   0.000851   0.000019   0.001347
    11  Mg   0.000054  -0.000053   0.000059   0.000019   0.000249   0.000076
    12  Mg   0.000055  -0.000038  -0.000750   0.001347   0.000076   0.003024
    13  H   -0.000017   0.000002  -0.000006  -0.000020  -0.000009  -0.000055
    14  H   -0.000002   0.000012  -0.000056  -0.000004  -0.000013  -0.000025
    15  H    0.000000  -0.000000  -0.009718   0.000868   0.000013   0.001626
    16  H    0.000000  -0.000001  -0.016568   0.001049   0.000022   0.004006
    17  H   -0.000000   0.000000   0.000012  -0.000015  -0.000000  -0.000021
    18  H    0.000000  -0.000000  -0.000003   0.000010   0.000000   0.000011
              13         14         15         16         17         18
     1  C    0.000112   0.000030   0.000367   0.000503  -0.000005   0.000003
     2  C   -0.000082  -0.000043  -0.009101  -0.011845   0.000066  -0.000037
     3  C    0.000188   0.000563   0.008511   0.010350  -0.000027   0.000013
     4  C   -0.000033  -0.000187   0.001351   0.002872  -0.000003   0.000001
     5  C   -0.000287  -0.000454   0.000843   0.001973  -0.000004   0.000001
     6  C    0.000195   0.000167  -0.000294  -0.000622   0.000003  -0.000001
     7  O   -0.000017  -0.000002   0.000000   0.000000  -0.000000   0.000000
     8  O    0.000002   0.000012  -0.000000  -0.000001   0.000000  -0.000000
     9  O   -0.000006  -0.000056  -0.009718  -0.016568   0.000012  -0.000003
    10  O   -0.000020  -0.000004   0.000868   0.001049  -0.000015   0.000010
    11  Mg  -0.000009  -0.000013   0.000013   0.000022  -0.000000   0.000000
    12  Mg  -0.000055  -0.000025   0.001626   0.004006  -0.000021   0.000011
    13  H    0.000012   0.000000  -0.000000  -0.000000   0.000000  -0.000000
    14  H    0.000000   0.000010  -0.000002  -0.000010   0.000000  -0.000000
    15  H   -0.000000  -0.000002   0.570461   0.424563  -0.000190   0.000017
    16  H   -0.000000  -0.000010   0.424563   0.608138  -0.000110   0.000009
    17  H    0.000000   0.000000  -0.000190  -0.000110   0.000002  -0.000001
    18  H   -0.000000  -0.000000   0.000017   0.000009  -0.000001   0.000002
 Mulliken charges:
               1
     1  C   -0.000839
     2  C    0.020348
     3  C   -0.018472
     4  C   -0.004016
     5  C   -0.002692
     6  C    0.000889
     7  O   -0.000000
     8  O    0.000002
     9  O    0.025550
    10  O   -0.001860
    11  Mg  -0.000034
    12  Mg  -0.005512
    13  H    0.000001
    14  H    0.000012
    15  H    0.010686
    16  H   -0.024329
    17  H    0.000294
    18  H   -0.000025
 Sum of Mulliken charges =  -0.00000
 Mulliken charges with hydrogens summed into heavy atoms:
               1
     1  C   -0.000838
     2  C    0.020348
     3  C   -0.018472
     4  C   -0.004004
     5  C   -0.002692
     6  C    0.000889
     7  O   -0.000000
     8  O    0.000002
     9  O    0.025550
    10  O   -0.001860
    11  Mg  -0.000034
    12  Mg  -0.018886
         Mulliken charges condensed to fragments:
      1      0.013375
      2     -0.013643
      3      0.000269
 Electronic spatial extent (au):  <R**2>=            218.4698
 Charge=             -0.0000 electrons
 Dipole moment (field-independent basis, Debye):
    X=              0.0024    Y=             -0.0026    Z=             -0.0000  Tot=              0.0036
 Quadrupole moment (field-independent basis, Debye-Ang):
   XX=             -1.6758   YY=             -1.8517   ZZ=             -2.0909
   XY=              0.2954   XZ=             -0.0002   YZ=             -0.0001
 Traceless Quadrupole moment (field-independent basis, Debye-Ang):
   XX=              0.1970   YY=              0.0211   ZZ=             -0.2181
   XY=              0.2954   XZ=             -0.0002   YZ=             -0.0001
 Octapole moment (field-independent basis, Debye-Ang**2):
  XXX=            -26.5168  YYY=              8.7584  ZZZ=             -0.0117  XYY=            -10.6656
  XXY=              5.8311  XXZ=             -0.0052  XZZ=            -10.9411  YZZ=              3.2861
  YYZ=             -0.0032  XYZ=              0.0004
 Hexadecapole moment (field-independent basis, Debye-Ang**3):
 XXXX=           -280.9092 YYYY=            -30.0340 ZZZZ=             -2.0824 XXXY=             66.7532
 XXXZ=             -0.0646 YYYX=             47.9559 YYYZ=              0.0159 ZZZX=             -0.0613
 ZZZY=              0.0186 XXYY=            -65.9214 XXZZ=            -58.0341 YYZZ=             -5.9230
 XXYZ=              0.0114 YYXZ=             -0.0189 ZZXY=             17.1303
 N-N= 7.071087025185D-01 E-N=-3.609916071936D+00  KE= 1.114951588470D+00
 Calling FoFJK, ICntrl=  10002127 FMM=F ISym2X=0 I1Cent= 0 IOpClX= 0 NMat=1 NMatS=1 NMatT=0.
 Cartesian Forces:  Max     0.005238923 RMS     0.001267589
 CPIOFr:  IOpCl= 0 IRwI=-1 IRwCP=  731 ICalc=  2 LCPTot=      154727 Len1MO=      406028 IndFrg=     1372811
 Counterpoise: doing calculation for fragment   3 using the basis set of the full-system, NewBq=T
 Basis read from rwf:  (5D, 7F)
   316 basis functions,   508 primitive gaussians,   328 cartesian basis functions
     1 alpha electrons        1 beta electrons
       nuclear repulsion energy         0.7071035105 Hartrees.
 NAtoms=   18 NActive=   18 NUniq=   18 SFac= 1.00D+00 NAtFMM=   60 NAOKFM=F Big=F
 Integral buffers will be    131072 words long.
 Raffenetti 1 integral format.
 Two-electron integral symmetry is turned off.
 One-electron integrals computed using PRISM.
 NBasis=   316 RedAO= T EigKep=  3.29D-06  NBF=   316
 NBsUse=   315 1.00D-06 EigRej=  8.41D-07 NBFU=   315
 ExpMin= 1.46D-02 ExpMax= 4.39D+04 ExpMxC= 1.51D+03 IAcc=3 IRadAn=         5 AccDes= 0.00D+00
 Harris functional with IExCor=  205 and IRadAn=       5 diagonalized for initial guess.
 HarFok:  IExCor=  205 AccDes= 0.00D+00 IRadAn=         5 IDoV= 1 UseB2=F ITyADJ=14
 ICtDFT=  3500011 ScaDFX=  1.000000  1.000000  1.000000  1.000000
 FoFCou: FMM=F IPFlag=           0 FMFlag=      100000 FMFlg1=           0
         NFxFlg=           0 DoJE=T BraDBF=F KetDBF=T FulRan=T
         wScrn=  0.000000 ICntrl=       500 IOpCl=  0 I1Cent=   200000004 NGrid=           0
         NMat0=    1 NMatS0=      1 NMatT0=    0 NMatD0=    1 NMtDS0=    0 NMtDT0=    0
 Symmetry not used in FoFCou.
 Requested convergence on RMS density matrix=1.00D-08 within 128 cycles.
 Requested convergence on MAX density matrix=1.00D-06.
 Requested convergence on             energy=1.00D-06.
 No special actions if energy rises.
 SCF Done:  E(RHF) =  -1.13246769659     A.U. after    7 cycles
            NFock=  7  Conv=0.11D-08     -V/T= 2.0157
 Range of M.O.s used for correlation:     1   315
 NBasis=   316 NAE=     1 NBE=     1 NFC=     0 NFV=     0
 NROrb=    315 NOA=     1 NOB=     1 NVA=   314 NVB=   314

 **** Warning!!: The largest alpha MO coefficient is  0.10615680D+03

 Fully direct method using O(ONN) memory.
 JobTyp=1 Pass  1:  I=   1 to   1 NPSUse= 10 ParTrn=T ParDer=T DoDerP=T.
 Spin components of T(2) and E(2):
     alpha-alpha T2 =       0.0000000000D+00 E2=      0.0000000000D+00
     alpha-beta  T2 =       0.9503595316D-02 E2=     -0.2828075451D-01
     beta-beta   T2 =       0.0000000000D+00 E2=      0.0000000000D+00
 ANorm=    0.1004740561D+01
 E2 =    -0.2828075451D-01 EUMP2 =    -0.11607484510972D+01
          IDoAtm=000000000000001111
          Differentiating once with respect to electric field.
                with respect to dipole field.
          Differentiating once with respect to nuclear coordinates.
 Keep R1 ints in memory in canonical form, NReq=1272138402.
          There are     1 degrees of freedom in the 1st order CPHF.  IDoFFX=0 NUNeed=     1.
 LinEq1:  Iter=  0 NonCon=     1 RMS=9.45D-04 Max=6.76D-03 NDo=     1
 AX will form     1 AO Fock derivatives at one time.
 LinEq1:  Iter=  1 NonCon=     1 RMS=4.59D-05 Max=4.51D-04 NDo=     1
 LinEq1:  Iter=  2 NonCon=     1 RMS=2.67D-06 Max=2.29D-05 NDo=     1
 LinEq1:  Iter=  3 NonCon=     1 RMS=1.14D-07 Max=9.50D-07 NDo=     1
 LinEq1:  Iter=  4 NonCon=     1 RMS=5.28D-09 Max=2.91D-08 NDo=     1
 LinEq1:  Iter=  5 NonCon=     1 RMS=3.79D-10 Max=2.05D-09 NDo=     1
 LinEq1:  Iter=  6 NonCon=     0 RMS=3.11D-11 Max=1.44D-10 NDo=     1
 Linear equations converged to 1.000D-10 1.000D-09 after     6 iterations.
 End of Minotr F.D. properties file   721 does not exist.
 End of Minotr F.D. properties file   722 does not exist.
 End of Minotr F.D. properties file   788 does not exist.

 **********************************************************************

            Population analysis using the SCF Density.

 **********************************************************************

 Alpha  occ. eigenvalues --   -0.59209
 Alpha virt. eigenvalues --    0.01502   0.02329   0.02686   0.02726   0.03327
 Alpha virt. eigenvalues --    0.03700   0.03721   0.04888   0.07276   0.08296
 Alpha virt. eigenvalues --    0.08841   0.09291   0.10462   0.10503   0.10772
 Alpha virt. eigenvalues --    0.11293   0.11750   0.12512   0.12741   0.12870
 Alpha virt. eigenvalues --    0.13330   0.15113   0.15324   0.16675   0.18094
 Alpha virt. eigenvalues --    0.18368   0.18905   0.19407   0.19836   0.20822
 Alpha virt. eigenvalues --    0.20938   0.22025   0.22909   0.23842   0.24154
 Alpha virt. eigenvalues --    0.24571   0.24964   0.25207   0.25959   0.26328
 Alpha virt. eigenvalues --    0.27190   0.28750   0.29475   0.29517   0.30406
 Alpha virt. eigenvalues --    0.31130   0.31767   0.32082   0.34095   0.34445
 Alpha virt. eigenvalues --    0.34902   0.35936   0.36207   0.36348   0.36362
 Alpha virt. eigenvalues --    0.36465   0.38306   0.40226   0.40736   0.41030
 Alpha virt. eigenvalues --    0.42768   0.44061   0.44620   0.45508   0.46728
 Alpha virt. eigenvalues --    0.46996   0.47439   0.49761   0.49961   0.50534
 Alpha virt. eigenvalues --    0.51539   0.52132   0.53862   0.55151   0.56301
 Alpha virt. eigenvalues --    0.58855   0.59521   0.60698   0.64627   0.65235
 Alpha virt. eigenvalues --    0.66655   0.67477   0.71397   0.71483   0.71891
 Alpha virt. eigenvalues --    0.73114   0.73848   0.74109   0.75109   0.76950
 Alpha virt. eigenvalues --    0.77351   0.77458   0.81391   0.82752   0.84962
 Alpha virt. eigenvalues --    0.85940   0.87945   0.88624   0.90490   0.90884
 Alpha virt. eigenvalues --    0.92479   0.95003   0.96560   0.96758   0.97353
 Alpha virt. eigenvalues --    0.97922   0.99034   0.99226   0.99892   1.00666
 Alpha virt. eigenvalues --    1.02439   1.03630   1.05031   1.10152   1.10545
 Alpha virt. eigenvalues --    1.10977   1.11517   1.15046   1.17548   1.18150
 Alpha virt. eigenvalues --    1.24676   1.26389   1.26666   1.27492   1.28307
 Alpha virt. eigenvalues --    1.29935   1.35182   1.35465   1.40403   1.40830
 Alpha virt. eigenvalues --    1.41912   1.43146   1.44118   1.46198   1.50696
 Alpha virt. eigenvalues --    1.53483   1.53731   1.57882   1.61139   1.62776
 Alpha virt. eigenvalues --    1.70659   1.72233   1.73111   1.73157   1.75486
 Alpha virt. eigenvalues --    1.80369   1.81685   1.82050   1.82564   1.86697
 Alpha virt. eigenvalues --    1.87671   1.90489   1.92398   1.95339   1.98549
 Alpha virt. eigenvalues --    1.99042   2.00413   2.08194   2.10363   2.10749
 Alpha virt. eigenvalues --    2.14594   2.15829   2.15840   2.19796   2.23370
 Alpha virt. eigenvalues --    2.23510   2.28010   2.30935   2.34998   2.38809
 Alpha virt. eigenvalues --    2.39264   2.42555   2.44849   2.45170   2.48479
 Alpha virt. eigenvalues --    2.49495   2.56538   2.58485   2.58897   2.60127
 Alpha virt. eigenvalues --    2.61496   2.68129   2.74022   2.76886   2.83086
 Alpha virt. eigenvalues --    2.83390   2.84537   2.88522   2.89790   2.92599
 Alpha virt. eigenvalues --    2.94094   2.95046   2.96055   2.99803   3.03950
 Alpha virt. eigenvalues --    3.05482   3.09352   3.09499   3.09891   3.13220
 Alpha virt. eigenvalues --    3.14305   3.24992   3.25191   3.26724   3.31929
 Alpha virt. eigenvalues --    3.34067   3.34995   3.36597   3.37242   3.41851
 Alpha virt. eigenvalues --    3.47252   3.48221   3.53941   3.54937   3.56222
 Alpha virt. eigenvalues --    3.65829   3.77365   3.90711   4.04175   4.08018
 Alpha virt. eigenvalues --    4.21339   4.23214   4.23553   4.27878   4.33439
 Alpha virt. eigenvalues --    4.37729   4.41024   4.45046   4.48301   4.60531
 Alpha virt. eigenvalues --    4.61642   4.62798   4.63146   4.80243   4.81662
 Alpha virt. eigenvalues --    4.85917   4.86371   4.87112   4.90633   4.91175
 Alpha virt. eigenvalues --    4.92350   4.95274   4.96515   5.01614   5.02445
 Alpha virt. eigenvalues --    5.04155   5.19814   5.39847   5.59621   5.61186
 Alpha virt. eigenvalues --    5.73873   5.90632   7.01742   7.03305   7.08834
 Alpha virt. eigenvalues --    7.10493   7.15130   7.23448   7.23845   7.37233
 Alpha virt. eigenvalues --    7.73588   7.74913   7.78551   7.83304   7.83499
 Alpha virt. eigenvalues --    7.83690   8.04407   8.06090   8.16368   8.26573
 Alpha virt. eigenvalues --    8.34535   8.96903   9.67329  10.11118  10.17911
 Alpha virt. eigenvalues --   10.18963  10.27098  10.29247  13.47987  13.50155
 Alpha virt. eigenvalues --   13.52721  13.54267  13.65669  13.69335  13.76156
 Alpha virt. eigenvalues --   13.77107  13.96031  14.07244  14.09665  14.11845
 Alpha virt. eigenvalues --   18.52005  18.58204  18.65994  18.69144  24.88816
 Alpha virt. eigenvalues --   24.89230  25.11076  25.12372  25.19636  25.19888
 Alpha virt. eigenvalues --   41.99328  42.05923  69.74132  69.91327  69.95186
 Alpha virt. eigenvalues --   69.95547  70.02851  70.05416 139.78394 139.79342
 Alpha virt. eigenvalues --  139.80819 139.81499 308.90619 309.04210
          Condensed to atoms (all electrons):
               1          2          3          4          5          6
     1  C    0.005698  -0.015770  -0.000442  -0.001138  -0.006335   0.014378
     2  C   -0.015770   0.056124  -0.011171   0.007505   0.024691  -0.052099
     3  C   -0.000442  -0.011171   0.018894  -0.005180  -0.004735   0.008239
     4  C   -0.001138   0.007505  -0.005180   0.003487   0.005413  -0.009405
     5  C   -0.006335   0.024691  -0.004735   0.005413   0.015323  -0.028414
     6  C    0.014378  -0.052099   0.008239  -0.009405  -0.028414   0.056086
     7  O   -0.000298   0.001196  -0.000338   0.000226   0.000665  -0.001345
     8  O    0.000120  -0.000819   0.000521  -0.000457  -0.000750   0.001208
     9  O    0.000590  -0.000256  -0.003150   0.000252  -0.000898   0.001520
    10  O    0.000984  -0.005895   0.002664  -0.000435  -0.001353   0.003178
    11  Mg   0.000304  -0.001713   0.000572  -0.000538  -0.001193   0.002188
    12  Mg   0.001928  -0.002917  -0.005187   0.000103  -0.002749   0.005085
    13  H   -0.000189   0.000564  -0.000044   0.000029   0.000168  -0.000452
[...]
   D12        0.00181  -0.00000   0.00000  -0.00089  -0.00089   0.00091
   D13       -0.00105   0.00000   0.00000   0.00097   0.00097  -0.00008
   D14       -0.00104   0.00000   0.00000   0.00092   0.00092  -0.00012
   D15       -3.13850  -0.00000   0.00000  -0.00153  -0.00153  -3.14003
   D16       -3.13985  -0.00000   0.00000  -0.00089  -0.00089  -3.14074
         Item               Value     Threshold  Converged?
 Maximum Force            0.000006     0.000450     YES
 RMS     Force            0.000002     0.000300     YES
 Maximum Displacement     0.003740     0.001800     NO 
 RMS     Displacement     0.000624     0.001200     YES
 Predicted change in Energy=-3.505029D-09
                           ----------------------------
                           ! Non-Optimized Parameters !
                           ! (Angstroms and Degrees)  !
 --------------------------                            --------------------------
 ! Name  Definition              Value          Derivative Info.                !
 --------------------------------------------------------------------------------
 ! X1    R(1,-1)                 0.0127         -DE/DX =    0.0                 !
 ! Y1    R(1,-2)                 1.3968         -DE/DX =    0.0                 !
 ! Z1    R(1,-3)                -0.0002         -DE/DX =    0.0                 !
 ! X2    R(2,-1)                 1.2375         -DE/DX =    0.0                 !
 ! Y2    R(2,-2)                 0.717          -DE/DX =    0.0                 !
 ! Z2    R(2,-3)                 0.0            -DE/DX =    0.0                 !
 ! X3    R(3,-1)                 1.2375         -DE/DX =    0.0                 !
 ! Y3    R(3,-2)                -0.7162         -DE/DX =    0.0                 !
 ! Z3    R(3,-3)                 0.0            -DE/DX =    0.0                 !
 ! X4    R(4,-1)                 0.0129         -DE/DX =    0.0                 !
 ! Y4    R(4,-2)                -1.3965         -DE/DX =    0.0                 !
 ! Z4    R(4,-3)                 0.0            -DE/DX =    0.0                 !
 ! X5    R(5,-1)                -1.2117         -DE/DX =    0.0                 !
 ! Y5    R(5,-2)                -0.7168         -DE/DX =    0.0                 !
 ! Z5    R(5,-3)                 0.0            -DE/DX =    0.0                 !
 ! X6    R(6,-1)                -1.2117         -DE/DX =    0.0                 !
 ! Y6    R(6,-2)                 0.7164         -DE/DX =    0.0                 !
 ! Z6    R(6,-3)                 0.0001         -DE/DX =    0.0                 !
 ! X7    R(7,-1)                -2.3964         -DE/DX =    0.0                 !
 ! Y7    R(7,-2)                 1.4338         -DE/DX =    0.0                 !
 ! Z7    R(7,-3)                 0.0            -DE/DX =    0.0                 !
 ! X8    R(8,-1)                -2.3964         -DE/DX =    0.0                 !
 ! Y8    R(8,-2)                -1.4341         -DE/DX =    0.0                 !
 ! Z8    R(8,-3)                 0.0            -DE/DX =    0.0                 !
 ! X9    R(9,-1)                 2.4236         -DE/DX =    0.0                 !
 ! Y9    R(9,-2)                -1.4207         -DE/DX =    0.0                 !
 ! Z9    R(9,-3)                 0.0            -DE/DX =    0.0                 !
 ! X10   R(10,-1)                2.4238         -DE/DX =    0.0                 !
 ! Y10   R(10,-2)                1.4212         -DE/DX =    0.0                 !
 ! Z10   R(10,-3)                0.0003         -DE/DX =    0.0                 !
 ! X11   R(11,-1)               -3.5943         -DE/DX =    0.0                 !
 ! Y11   R(11,-2)               -0.0002         -DE/DX =    0.0                 !
 ! Z11   R(11,-3)                0.0            -DE/DX =    0.0                 !
 ! X12   R(12,-1)                3.6397         -DE/DX =    0.0                 !
 ! Y12   R(12,-2)                0.0            -DE/DX =    0.0                 !
 ! Z12   R(12,-3)               -0.0002         -DE/DX =    0.0                 !
 ! X13   R(13,-1)                0.0116         -DE/DX =    0.0                 !
 ! Y13   R(13,-2)                2.4838         -DE/DX =    0.0                 !
 ! Z13   R(13,-3)                0.0            -DE/DX =    0.0                 !
 ! X14   R(14,-1)                0.0122         -DE/DX =    0.0                 !
 ! Y14   R(14,-2)               -2.4835         -DE/DX =    0.0                 !
 ! Z14   R(14,-3)                0.0            -DE/DX =    0.0                 !
 ! R1    R(12,15)                2.3135         -DE/DX =    0.0                 !
 ! R2    R(12,16)                2.2247         -DE/DX =    0.0                 !
 ! R3    R(12,17)                2.3135         -DE/DX =    0.0                 !
 ! R4    R(12,18)                2.2247         -DE/DX =    0.0                 !
 ! R5    R(15,16)                0.7484         -DE/DX =    0.0                 !
 ! R6    R(17,18)                0.7484         -DE/DX =    0.0                 !
 ! A1    A(2,12,15)            161.2801         -DE/DX =    0.0                 !
 ! A2    A(2,12,16)            142.4284         -DE/DX =    0.0                 !
 ! A3    A(2,12,17)            128.0412         -DE/DX =    0.0                 !
 ! A4    A(2,12,18)            109.1893         -DE/DX =    0.0                 !
 ! A5    A(3,12,15)            128.0576         -DE/DX =    0.0                 !
 ! A6    A(3,12,16)            109.2059         -DE/DX =    0.0                 !
 ! A7    A(3,12,17)            161.2637         -DE/DX =    0.0                 !
 ! A8    A(3,12,18)            142.4118         -DE/DX =    0.0                 !
 ! A9    A(9,12,15)             95.2232         -DE/DX =    0.0                 !
 ! A10   A(9,12,16)             76.3715         -DE/DX =    0.0                 !
 ! A11   A(10,12,17)            95.2097         -DE/DX =    0.0                 !
 ! A12   A(10,12,18)            76.3577         -DE/DX =    0.0                 !
 ! A13   A(15,12,17)            70.6787         -DE/DX =    0.0                 !
 ! A14   A(15,12,18)            89.5306         -DE/DX =    0.0                 !
 ! A15   A(16,12,17)            89.5304         -DE/DX =    0.0                 !
 ! A16   A(16,12,18)           108.3823         -DE/DX =    0.0                 !
 ! A17   L(9,12,17,2,-1)       194.0981         -DE/DX =    0.0                 !
 ! A18   L(9,12,18,2,-1)       175.2462         -DE/DX =    0.0                 !
 ! A19   L(10,12,15,3,-1)      194.1116         -DE/DX =    0.0                 !
 ! A20   L(10,12,16,3,-1)      175.26           -DE/DX =    0.0                 !
 ! A21   L(9,12,17,2,-2)       179.9657         -DE/DX =    0.0                 !
 ! A22   L(9,12,18,2,-2)       179.9664         -DE/DX =    0.0                 !
 ! A23   L(10,12,15,3,-2)      180.0204         -DE/DX =    0.0                 !
 ! A24   L(10,12,16,3,-2)      180.0215         -DE/DX =    0.0                 !
 ! D1    D(6,1,12,15)            0.013          -DE/DX =    0.0                 !
 ! D2    D(6,1,12,16)            0.0094         -DE/DX =    0.0                 !
 ! D3    D(6,1,12,17)         -179.9587         -DE/DX =    0.0                 !
 ! D4    D(6,1,12,18)         -179.9564         -DE/DX =    0.0                 !
 ! D5    D(13,1,12,15)         179.9832         -DE/DX =    0.0                 !
 ! D6    D(13,1,12,16)         179.9795         -DE/DX =    0.0                 !
 ! D7    D(13,1,12,17)           0.0114         -DE/DX =    0.0                 !
 ! D8    D(13,1,12,18)           0.0137         -DE/DX =    0.0                 !
 ! D9    D(5,4,12,15)          179.9989         -DE/DX =    0.0                 !
 ! D10   D(5,4,12,16)          179.9967         -DE/DX =    0.0                 !
 ! D11   D(5,4,12,17)            0.0931         -DE/DX =    0.0                 !
 ! D12   D(5,4,12,18)            0.0524         -DE/DX =    0.0                 !
 ! D13   D(14,4,12,15)          -0.0047         -DE/DX =    0.0                 !
 ! D14   D(14,4,12,16)          -0.0069         -DE/DX =    0.0                 !
 ! D15   D(14,4,12,17)        -179.9105         -DE/DX =    0.0                 !
 ! D16   D(14,4,12,18)        -179.9512         -DE/DX =    0.0                 !
 --------------------------------------------------------------------------------
 GradGradGradGradGradGradGradGradGradGradGradGradGradGradGradGradGradGrad


 ----------------------------------------------------------------------

 Electric dipole moment (input orientation):
 (Debye = 10**-18 statcoulomb cm , SI units = C m)
                  (au)            (Debye)         (10**-30 SI)
   Tot        0.465375D+00      0.118287D+01      0.394562D+01
   x          0.465375D+00      0.118287D+01      0.394561D+01
   y         -0.555032D-03     -0.141075D-02     -0.470576D-02
   z          0.369024D-04      0.937965D-04      0.312871D-03

 Dipole polarizability, Alpha (input orientation).
 (esu units = cm**3 , SI units = C**2 m**2 J**-1)
 Alpha(0;0):
               (au)            (10**-24 esu)      (10**-40 SI)
   iso        0.142292D+03      0.210855D+02      0.234608D+02
   aniso      0.123623D+03      0.183190D+02      0.203827D+02
   xx         0.223229D+03      0.330792D+02      0.368055D+02
   yx         0.687772D-02      0.101917D-02      0.113398D-02
   yy         0.115279D+03      0.170826D+02      0.190070D+02
   zx        -0.456961D-02     -0.677146D-03     -0.753426D-03
   zy        -0.249157D-02     -0.369212D-03     -0.410804D-03
   zz         0.883671D+02      0.130947D+02      0.145698D+02

 ----------------------------------------------------------------------

 Dipole orientation:
     6          0.00359002          2.63954269          0.02078152
     6          0.00178577          1.35777541          2.33695050
     6         -0.00147254         -1.35065553          2.34019774
     6         -0.00314334         -2.63899988          0.02757593
     6         -0.00178121         -1.35719752         -2.28813764
     6          0.00123504          1.35108631         -2.29138846
     8          0.00286565          2.70404713         -4.53175844
     8         -0.00359749         -2.71550010         -4.52523809
     8         -0.00290943         -2.67920583          4.58309917
     8          0.00302635          2.69108119          4.57709493
    12         -0.00055049         -0.00838370         -6.79231490
    12          0.00093313          0.00820948          6.87795185
     1          0.00565964          4.69363038          0.01627948
     1         -0.00561006         -4.69307599          0.02872560
     1         -0.00547082         -2.51678448         10.44712688
     1         -0.00706192         -3.39867885          9.34157320
     1          0.00110198          2.54152441         10.44099763
     1          0.00134084          3.42071647          9.33327936

 Electric dipole moment (dipole orientation):
 (Debye = 10**-18 statcoulomb cm , SI units = C m)
                  (au)            (Debye)         (10**-30 SI)
   Tot        0.465375D+00      0.118287D+01      0.394562D+01
   x          0.000000D+00      0.000000D+00      0.000000D+00
   y          0.000000D+00      0.000000D+00      0.000000D+00
   z          0.465375D+00      0.118287D+01      0.394562D+01

 Dipole polarizability, Alpha (dipole orientation).
 (esu units = cm**3 , SI units = C**2 m**2 J**-1)
 Alpha(0;0):
               (au)            (10**-24 esu)      (10**-40 SI)
   iso        0.142292D+03      0.210855D+02      0.234608D+02
   aniso      0.123623D+03      0.183190D+02      0.203827D+02
   xx         0.883672D+02      0.130947D+02      0.145698D+02
   yx         0.346047D-01      0.512789D-02      0.570554D-02
   yy         0.115279D+03      0.170826D+02      0.190070D+02
   zx         0.154224D-01      0.228536D-02      0.254281D-02
   zy         0.135606D+00      0.200948D-01      0.223584D-01
   zz         0.223229D+03      0.330791D+02      0.368055D+02

 ----------------------------------------------------------------------
 Unable to Open any file for archive entry.
 1\1\GINC-GPU17\Freq\RMP2-FC\6-311+G(d,p)\C6H6Mg2O4\X2848A03\12-Sep-202
 4\0\\#N Geom=AllCheck Guess=TCheck SCRF=Check GenChk RMP2(FC)/6-311+G(
 d,p) Freq\\two_3_frag_2\\0,1\C,0.012663,1.396773,-0.000233\C,1.237517,
 0.717029,0.00001\C,1.237526,-0.716213,0.000025\C,0.012927,-1.396516,-0
 .000001\C,-1.211686,-0.716754,-0.00001\C,-1.211697,0.71641,0.000103\O,
 -2.396395,1.43378,0.\O,-2.396365,-1.434125,0.\O,2.423579,-1.420667,0.0
 00041\O,2.423791,1.42117,0.000289\Mg,-3.594341,-0.00015,0.000001\Mg,3.
 639658,0.000004,-0.0002\H,0.011577,2.483752,-0.000032\H,0.012239,-2.48
 3487,0.000008\H,5.526789,-1.33842,0.001745\H,4.941199,-1.804401,0.0019
 84\H,5.526738,1.338326,0.001459\H,4.941114,1.804273,0.001841\\Version=
 ES64L-G16RevC.01\HF=-1.1323746\MP2=-1.1602035\RMSD=0.000e+00\RMSF=1.91
 8e-06\ZeroPoint=0.027792\Thermal=0.0351611\ETot=-931.1720266\HTot=-931
 .1710824\GTot=-931.2150724\Dipole=0.4653751,-0.000555,0.0000369\Dipole
 Deriv=0.,0.,0.,0.,0.,0.,0.,0.,0.,0.,0.,0.,0.,0.,0.,0.,0.,0.,0.,0.,0.,0
 .,0.,0.,0.,0.,0.,0.,0.,0.,0.,0.,0.,0.,0.,0.,0.,0.,0.,0.,0.,0.,0.,0.,0.
 ,0.,0.,0.,0.,0.,0.,0.,0.,0.,0.,0.,0.,0.,0.,0.,0.,0.,0.,0.,0.,0.,0.,0.,
 0.,0.,0.,0.,0.,0.,0.,0.,0.,0.,0.,0.,0.,0.,0.,0.,0.,0.,0.,0.,0.,0.,0.,0
 .,0.,0.,0.,0.,0.,0.,0.,0.,0.,0.,0.,0.,0.,0.,0.,0.,0.,0.,0.,0.,0.,0.,0.
 ,0.,0.,0.,0.,0.,0.,0.,0.,0.,0.,0.,-0.0021315,-0.0169757,-0.0000337,0.0
 657946,-0.1295245,0.0001397,-0.0000218,0.0001072,0.0138634,0.0320262,0
 .0892702,-0.0001041,0.0517559,0.1125847,-0.0000473,-0.0002753,0.000015
 7,0.0705715,-0.0021745,0.0169927,-0.0000351,-0.0657463,-0.1295159,-0.0
 001205,-0.00008,-0.0001264,0.0138605,0.0321516,-0.0892678,-0.0000644,-
 0.051814,0.1125845,0.0000575,-0.0002519,0.0000117,0.0705816\Polar=223.
 2292175,0.0068777,115.279191,-0.0045696,-0.0024916,88.3671493\PG=C01 [
 X(C6H6Mg2O4)]\NImag=0\\0.,0.,0.,0.,0.,0.,0.,0.,0.,0.,0.,0.,0.,0.,0.,0.
 ,0.,0.,0.,0.,0.,0.,0.,0.,0.,0.,0.,0.,0.,0.,0.,0.,0.,0.,0.,0.,0.,0.,0.,
 0.,0.,0.,0.,0.,0.,0.,0.,0.,0.,0.,0.,0.,0.,0.,0.,0.,0.,0.,0.,0.,0.,0.,0
 .,0.,0.,0.,0.,0.,0.,0.,0.,0.,0.,0.,0.,0.,0.,0.,0.,0.,0.,0.,0.,0.,0.,0.
 ,0.,0.,0.,0.,0.,0.,0.,0.,0.,0.,0.,0.,0.,0.,0.,0.,0.,0.,0.,0.,0.,0.,0.,
 0.,0.,0.,0.,0.,0.,0.,0.,0.,0.,0.,0.,0.,0.,0.,0.,0.,0.,0.,0.,0.,0.,0.,0
 .,0.,0.,0.,0.,0.,0.,0.,0.,0.,0.,0.,0.,0.,0.,0.,0.,0.,0.,0.,0.,0.,0.,0.
 ,0.,0.,0.,0.,0.,0.,0.,0.,0.,0.,0.,0.,0.,0.,0.,0.,0.,0.,0.,0.,0.,0.,0.,
 0.,0.,0.,0.,0.,0.,0.,0.,0.,0.,0.,0.,0.,0.,0.,0.,0.,0.,0.,0.,0.,0.,0.,0
 .,0.,0.,0.,0.,0.,0.,0.,0.,0.,0.,0.,0.,0.,0.,0.,0.,0.,0.,0.,0.,0.,0.,0.
 ,0.,0.,0.,0.,0.,0.,0.,0.,0.,0.,0.,0.,0.,0.,0.,0.,0.,0.,0.,0.,0.,0.,0.,
 0.,0.,0.,0.,0.,0.,0.,0.,0.,0.,0.,0.,0.,0.,0.,0.,0.,0.,0.,0.,0.,0.,0.,0
 .,0.,0.,0.,0.,0.,0.,0.,0.,0.,0.,0.,0.,0.,0.,0.,0.,0.,0.,0.,0.,0.,0.,0.
 ,0.,0.,0.,0.,0.,0.,0.,0.,0.,0.,0.,0.,0.,0.,0.,0.,0.,0.,0.,0.,0.,0.,0.,
 0.,0.,0.,0.,0.,0.,0.,0.,0.,0.,0.,0.,0.,0.,0.,0.,0.,0.,0.,0.,0.,0.,0.,0
 .,0.,0.,0.,0.,0.,0.,0.,0.,0.,0.,0.,0.,0.,0.,0.,0.,0.,0.,0.,0.,0.,0.,0.
 ,0.,0.,0.,0.,0.,0.,0.,0.,0.,0.,0.,0.,0.,0.,0.,0.,0.,0.,0.,0.,0.,0.,0.,
 0.,0.,0.,0.,0.,0.,0.,0.,0.,0.,0.,0.,0.,0.,0.,0.,0.,0.,0.,0.,0.,0.,0.,0
 .,0.,0.,0.,0.,0.,0.,0.,0.,0.,0.,0.,0.,0.,0.,0.,0.,0.,0.,0.,0.,0.,0.,0.
 ,0.,0.,0.,0.,0.,0.,0.,0.,0.,0.,0.,0.,0.,0.,0.,0.,0.,0.,0.,0.,0.,0.,0.,
 0.,0.,0.,0.,0.,0.,0.,0.,0.,0.,0.,0.,0.,0.,0.,0.,0.,0.,0.,0.,0.,0.,0.,0
 .,0.,0.,0.,0.,0.,0.,0.,0.,0.,0.,0.,0.,0.,0.,0.,0.,0.,0.,0.,0.,0.,0.,0.
 ,0.,0.,0.,0.,0.,0.,0.,0.,0.,0.,0.,0.,0.,0.,0.,0.,0.,0.,0.,0.,0.,0.,0.,
 0.,0.,0.,0.,0.,0.,0.,0.,0.,0.,0.,0.,0.,0.,0.,0.,0.,0.,0.,0.,0.,0.,0.,0
 .,0.,0.,0.,0.,0.,0.,0.,0.,0.,0.,0.,0.,0.,0.,0.,0.,0.,0.,0.,0.,0.,0.,0.
 ,0.,0.,0.,0.,0.,0.,0.,0.,0.,0.,0.,0.,0.,0.,0.,0.,0.,0.,0.,0.,0.,0.,0.,
 0.,0.,0.,0.,0.,0.,0.,0.,0.,0.,0.,0.,0.,0.,0.,0.,0.,0.,0.,0.,0.,0.,0.,0
 .,0.,0.,0.,0.,0.,0.,0.,0.,0.,0.,0.,0.,0.,0.,0.,0.,0.,0.,0.,0.,0.,0.,0.
 ,0.,0.,0.,0.,0.,0.,0.,0.,0.,0.,0.,0.,0.,0.,0.,0.,0.,0.,0.,0.,0.,0.,0.,
 0.,0.,0.,0.,0.,0.,0.,0.,0.,0.,0.,0.,0.,0.,0.,0.,0.,0.,0.,0.,0.,0.,0.,0
 .,0.,0.,0.,0.,0.,0.,0.,0.,0.,0.,0.,0.,0.,0.,0.,0.,0.,0.,0.,0.,0.,0.,0.
 ,0.,0.,0.,0.,0.,0.,0.,0.,0.,0.,0.,0.,0.,0.,0.,0.,0.,0.,0.,0.,0.,0.,0.,
 0.,0.,0.,0.,0.,0.,0.,0.,0.,0.,0.,0.,0.,0.,0.,0.,0.,0.,0.,0.,0.,0.,0.,0
 .,0.,0.,0.,0.,0.,0.,0.,0.,0.,0.,0.,0.,0.,0.,0.,0.,0.,0.,0.,0.,0.,0.,0.
 ,0.,0.,0.,0.,0.,0.,0.,0.,0.,0.,0.,0.,0.,0.,0.,0.,0.,0.,0.,0.,0.,0.,0.,
 0.,0.,0.,0.,0.,0.,0.,0.,0.,0.,0.,0.,0.,0.,0.,0.,0.,0.,0.,0.,0.,0.,0.,0
 .,0.,0.,0.,0.,0.,0.,0.,0.,0.,0.,0.,0.,0.,0.,0.,0.,0.,0.,0.,0.,0.,0.,0.
 ,0.,0.,0.,0.,0.,0.,0.,0.,0.,0.,0.,0.,0.,0.,0.,0.,0.,0.,0.,0.,0.,0.,0.,
 0.,0.,0.,0.,0.,0.,0.,0.,0.,0.,0.,0.,0.,0.,0.,0.,0.,0.,0.,0.,0.,0.,0.,0
 .,0.,0.,0.,0.,0.,0.,0.,0.,0.,0.,0.,0.,0.,0.,0.,0.,0.,0.,0.,0.,0.,0.,0.
 ,0.,0.,0.,0.,0.,0.,0.,0.,0.,0.,0.,0.,0.,0.,0.,0.,0.,0.,0.,0.23478173,0
 .,0.,0.,0.,0.,0.,0.,0.,0.,0.,0.,0.,0.,0.,0.,0.,0.,0.,0.,0.,0.,0.,0.,0.
 ,0.,0.,0.,0.,0.,0.,0.,0.,0.,0.,0.,0.,0.,0.,0.,0.,0.,0.,0.17305402,0.14
 783887,0.,0.,0.,0.,0.,0.,0.,0.,0.,0.,0.,0.,0.,0.,0.,0.,0.,0.,0.,0.,0.,
 0.,0.,0.,0.,0.,0.,0.,0.,0.,0.,0.,0.,0.,0.,0.,0.,0.,0.,0.,0.,0.,-0.0000
 8230,-0.00007672,0.00221621,0.,0.,0.,0.,0.,0.,0.,0.,0.,0.,0.,0.,0.,0.,
 0.,0.,0.,0.,0.,0.,0.,0.,0.,0.,0.,0.,0.,0.,0.,0.,0.,0.,0.,0.,0.,0.,0.,0
 .,0.,0.,0.,0.,-0.22715667,-0.17500430,0.00008612,0.22695627,0.,0.,0.,0
 .,0.,0.,0.,0.,0.,0.,0.,0.,0.,0.,0.,0.,0.,0.,0.,0.,0.,0.,0.,0.,0.,0.,0.
 ,0.,0.,0.,0.,0.,0.,0.,0.,0.,0.,0.,0.,0.,0.,0.,-0.17252050,-0.14736710,
 0.00007795,0.17064102,0.15491626,0.,0.,0.,0.,0.,0.,0.,0.,0.,0.,0.,0.,0
 .,0.,0.,0.,0.,0.,0.,0.,0.,0.,0.,0.,0.,0.,0.,0.,0.,0.,0.,0.,0.,0.,0.,0.
 ,0.,0.,0.,0.,0.,0.,0.00008482,0.00007675,-0.00183068,-0.00008161,-0.00
 008544,0.00173190,0.,0.,0.,0.,0.,0.,0.,0.,0.,0.,0.,0.,0.,0.,0.,0.,0.,0
 .,0.,0.,0.,0.,0.,0.,0.,0.,0.,0.,0.,0.,0.,0.,0.,0.,0.,0.,0.,0.,0.,0.,0.
 ,0.,0.00046482,0.00056163,-0.00000025,-0.00038869,0.00011855,0.0000002
 2,0.23479977,0.,0.,0.,0.,0.,0.,0.,0.,0.,0.,0.,0.,0.,0.,0.,0.,0.,0.,0.,
 0.,0.,0.,0.,0.,0.,0.,0.,0.,0.,0.,0.,0.,0.,0.,0.,0.,0.,0.,0.,0.,0.,0.,-
 0.00056163,-0.00119062,0.00000022,0.00053513,-0.00028301,-0.00000001,-
 0.17304014,0.14781346,0.,0.,0.,0.,0.,0.,0.,0.,0.,0.,0.,0.,0.,0.,0.,0.,
 0.,0.,0.,0.,0.,0.,0.,0.,0.,0.,0.,0.,0.,0.,0.,0.,0.,0.,0.,0.,0.,0.,0.,0
 .,0.,0.,-0.00000026,-0.00000023,0.00006476,0.00000028,0.00000001,0.000
 00104,-0.00013836,0.00011950,0.00221890,0.,0.,0.,0.,0.,0.,0.,0.,0.,0.,
 0.,0.,0.,0.,0.,0.,0.,0.,0.,0.,0.,0.,0.,0.,0.,0.,0.,0.,0.,0.,0.,0.,0.,0
 .,0.,0.,0.,0.,0.,0.,0.,0.,-0.00038873,-0.00053513,0.00000021,0.0004264
 4,-0.00007684,-0.00000013,-0.22717110,0.17499036,0.00014179,0.22697162
 ,0.,0.,0.,0.,0.,0.,0.,0.,0.,0.,0.,0.,0.,0.,0.,0.,0.,0.,0.,0.,0.,0.,0.,
 0.,0.,0.,0.,0.,0.,0.,0.,0.,0.,0.,0.,0.,0.,0.,0.,0.,0.,0.,-0.00011848,-
 0.00028296,0.,0.00007674,0.00016419,-0.00000033,0.17250561,-0.14734076
 ,-0.00012049,-0.17062263,0.15489425,0.,0.,0.,0.,0.,0.,0.,0.,0.,0.,0.,0
 .,0.,0.,0.,0.,0.,0.,0.,0.,0.,0.,0.,0.,0.,0.,0.,0.,0.,0.,0.,0.,0.,0.,0.
 ,0.,0.,0.,0.,0.,0.,0.,0.00000033,0.00000007,0.00000103,-0.00000009,0.0
 0000035,-0.00006140,0.00014028,-0.00012017,-0.00183334,-0.00013749,0.0
 0012796,0.00173399\\0.,0.,0.,0.,0.,0.,0.,0.,0.,0.,0.,0.,0.,0.,0.,0.,0.
 ,0.,0.,0.,0.,0.,0.,0.,0.,0.,0.,0.,0.,0.,0.,0.,0.,0.,0.,0.,0.,0.,0.,0.,
 0.,0.,-0.00000725,-0.00000387,0.00000111,0.00000750,0.00000021,-0.0000
 0013,-0.00000601,0.00000330,0.00000014,0.00000489,-0.00000158,0.000000
 30\\\@
 The archive entry for this job was punched.


 ... THE UNIVERSE IS NOT ONLY QUEERER THAN WE SUPPOSE,
 BUT QUEERER THAN WE CAN SUPPOSE ... 

                                   -- J. B. S. HALDANE
 Job cpu time:       1 days  4 hours  0 minutes 13.2 seconds.
 Elapsed time:       0 days  2 hours 48 minutes 53.1 seconds.
 File lengths (MBytes):  RWF=  52853 Int=      0 D2E=      0 Chk=     32 Scr=      1
 Normal termination of Gaussian 16 at Thu Sep 12 18:09:09 2024.
