       N       E                     dE             d eps       ncg     rms          rms(c)
DAV:   1     0.135930277583E+05    0.13593E+05   -0.69185E+05  2610   0.104E+03
DAV:   2    -0.157517979153E+04   -0.15168E+05   -0.14616E+05  3236   0.287E+02
DAV:   3    -0.392626651852E+04   -0.23511E+04   -0.23221E+04  2724   0.118E+02
DAV:   4    -0.400594450489E+04   -0.79678E+02   -0.78996E+02  2796   0.251E+01
DAV:   5    -0.400889121843E+04   -0.29467E+01   -0.29402E+01  3100   0.414E+00    0.103E+02
DAV:   6    -0.372426057234E+04    0.28463E+03   -0.57686E+02  2604   0.208E+01    0.542E+01
DAV:   7    -0.369144560808E+04    0.32815E+02   -0.12914E+02  2932   0.190E+01    0.305E+01
DAV:   8    -0.390539509458E+04   -0.21395E+03   -0.23016E+02  3091   0.479E+01    0.648E+01
DAV:   9    -0.367557659942E+04    0.22982E+03   -0.15977E+02  3028   0.409E+01    0.172E+01
DAV:  10    -0.367543128002E+04    0.14532E+00   -0.14043E+02  2788   0.142E+01    0.141E+01
DAV:  11    -0.367226590819E+04    0.31654E+01   -0.48489E+01  2740   0.815E+00    0.115E+01
DAV:  12    -0.367109149379E+04    0.11744E+01   -0.20282E+01  2740   0.431E+00    0.907E+00
DAV:  13    -0.366939040482E+04    0.17011E+01   -0.92768E+00  2844   0.354E+00    0.613E+00
DAV:  14    -0.366830838604E+04    0.10820E+01   -0.75063E+00  2740   0.312E+00    0.429E+00
DAV:  15    -0.366806617581E+04    0.24221E+00   -0.38515E+00  2700   0.180E+00    0.280E+00
DAV:  16    -0.366787154191E+04    0.19463E+00   -0.96302E-01  2756   0.133E+00    0.228E+00
DAV:  17    -0.366772032387E+04    0.15122E+00   -0.12605E+00  2732   0.101E+00    0.181E+00
DAV:  18    -0.366756720834E+04    0.15312E+00   -0.45033E-01  2764   0.965E-01    0.150E+00
DAV:  19    -0.366753257107E+04    0.34637E-01   -0.10715E+00  2732   0.649E-01    0.135E+00
DAV:  20    -0.366744044630E+04    0.92125E-01   -0.13203E-01  2828   0.676E-01    0.807E-01
DAV:  21    -0.366741901424E+04    0.21432E-01   -0.11280E-01  2700   0.459E-01    0.842E-01
DAV:  22    -0.366740316843E+04    0.15846E-01   -0.61453E-02  2708   0.345E-01    0.655E-01
DAV:  23    -0.366739276791E+04    0.10401E-01   -0.27871E-02  2740   0.293E-01    0.471E-01
DAV:  24    -0.366738833218E+04    0.44357E-02   -0.78172E-03  2668   0.273E-01    0.352E-01
DAV:  25    -0.366738915507E+04   -0.82289E-03   -0.12010E-02  2788   0.268E-01    0.187E-01
DAV:  26    -0.366739493146E+04   -0.57764E-02   -0.13065E-02  2660   0.150E-01    0.197E-01
DAV:  27    -0.366739779704E+04   -0.28656E-02   -0.17536E-03  2652   0.948E-02    0.118E-01
DAV:  28    -0.366740294436E+04   -0.51473E-02   -0.15126E-03  2652   0.626E-02    0.163E-01
DAV:  29    -0.366740844845E+04   -0.55041E-02   -0.21500E-03  2932   0.109E-01    0.841E-02
DAV:  30    -0.366741172331E+04   -0.32749E-02   -0.13116E-03  2660   0.347E-02    0.642E-02
DAV:  31    -0.366741321878E+04   -0.14955E-02   -0.18419E-04  2684   0.183E-02    0.383E-02
DAV:  32    -0.366741536104E+04   -0.21423E-02   -0.13275E-04  2604   0.194E-02    0.273E-02
DAV:  33    -0.366741680536E+04   -0.14443E-02   -0.10924E-04  2580   0.105E-02    0.196E-02
DAV:  34    -0.366741758505E+04   -0.77969E-03   -0.22833E-05  1836   0.802E-03    0.158E-02
DAV:  35    -0.366741844208E+04   -0.85703E-03   -0.35266E-05  1948   0.104E-02    0.120E-02
DAV:  36    -0.366741880543E+04   -0.36336E-03   -0.20377E-05  1828   0.703E-03    0.888E-03
DAV:  37    -0.366741902161E+04   -0.21617E-03   -0.11294E-05  1820   0.633E-03    0.478E-03
DAV:  38    -0.366741912488E+04   -0.10327E-03   -0.10050E-05  1796   0.359E-03    0.416E-03
DAV:  39    -0.366741919080E+04   -0.65920E-04   -0.29963E-06  1772   0.213E-03    0.307E-03
DAV:  40    -0.366741921652E+04   -0.25723E-04   -0.14971E-06  1748   0.173E-03    0.174E-03
DAV:  41    -0.366741923099E+04   -0.14474E-04   -0.87333E-07  1708   0.996E-04    0.139E-03
DAV:  42    -0.366741923685E+04   -0.58586E-05   -0.23672E-07  1668   0.873E-04
   1 F= -.37139125E+04 E0= -.37138055E+04  d E =-.371391E+04
       N       E                     dE             d eps       ncg     rms          rms(c)
DAV:   1    -0.366325946516E+04    0.41598E+01   -0.33788E+02  2362   0.167E+01    0.894E+00
DAV:   2    -0.366481465087E+04   -0.15552E+01   -0.31578E+01  3004   0.419E+00    0.813E+00
DAV:   3    -0.366365817650E+04    0.11565E+01   -0.12154E+01  3220   0.319E+00    0.449E+00
DAV:   4    -0.366346670117E+04    0.19148E+00   -0.87865E-01  2692   0.149E+00    0.373E+00
DAV:   5    -0.366352727586E+04   -0.60575E-01   -0.24779E+00  2916   0.119E+00    0.397E+00
DAV:   6    -0.366340169513E+04    0.12558E+00   -0.19752E+00  2852   0.892E-01    0.263E+00
DAV:   7    -0.366364787061E+04   -0.24618E+00   -0.45859E+00  3540   0.143E+00    0.399E+00
DAV:   8    -0.366344083032E+04    0.20704E+00   -0.40790E+00  2764   0.142E+00    0.210E+00
DAV:   9    -0.366334893618E+04    0.91894E-01   -0.16987E+00  2908   0.112E+00    0.962E-01
DAV:  10    -0.366333861215E+04    0.10324E-01   -0.94548E-02  2756   0.440E-01    0.103E+00
DAV:  11    -0.366332665097E+04    0.11961E-01   -0.64137E-02  2684   0.327E-01    0.440E-01
DAV:  12    -0.366332467844E+04    0.19725E-02   -0.10040E-02  2652   0.172E-01    0.196E-01
DAV:  13    -0.366332539523E+04   -0.71679E-03   -0.59923E-03  2580   0.964E-02    0.171E-01
DAV:  14    -0.366332496888E+04    0.42635E-03   -0.39761E-03  2684   0.720E-02    0.946E-02
DAV:  15    -0.366332496775E+04    0.11314E-05   -0.19257E-03  2684   0.396E-02    0.610E-02
DAV:  16    -0.366332501983E+04   -0.52076E-04   -0.58386E-04  2692   0.209E-02    0.416E-02
DAV:  17    -0.366332505316E+04   -0.33331E-04   -0.14405E-04  2500   0.130E-02    0.158E-02
DAV:  18    -0.366332512770E+04   -0.74543E-04   -0.46149E-05  1980   0.722E-03    0.129E-02
DAV:  19    -0.366332517285E+04   -0.45144E-04   -0.15065E-05  1772   0.511E-03    0.531E-03
DAV:  20    -0.366332521187E+04   -0.39020E-04   -0.60065E-06  1756   0.223E-03    0.336E-03
DAV:  21    -0.366332524758E+04   -0.35714E-04   -0.33078E-06  1740   0.174E-03    0.219E-03
DAV:  22    -0.366332526395E+04   -0.16374E-04   -0.14939E-06  1724   0.989E-04    0.160E-03
DAV:  23    -0.366332527858E+04   -0.14630E-04   -0.99130E-07  1732   0.758E-04    0.880E-04
DAV:  24    -0.366332528890E+04   -0.10316E-04   -0.97598E-07  1716   0.619E-04    0.964E-04
DAV:  25    -0.366332529191E+04   -0.30113E-05   -0.27403E-07  1604   0.428E-04
   2 F= -.37098088E+04 E0= -.37097054E+04  d E =0.410367E+01
       N       E                     dE             d eps       ncg     rms          rms(c)
DAV:   1    -0.366734480352E+04   -0.40195E+01   -0.24479E+02  2378   0.141E+01    0.806E+00
DAV:   2    -0.366792116983E+04   -0.57637E+00   -0.10748E+01  2900   0.259E+00    0.422E+00
DAV:   3    -0.366837778411E+04   -0.45661E+00   -0.15941E+01  3084   0.306E+00    0.499E+00
DAV:   4    -0.366794940757E+04    0.42838E+00   -0.81469E+00  2900   0.242E+00    0.335E+00
DAV:   5    -0.366770370708E+04    0.24570E+00   -0.51255E+00  2836   0.199E+00    0.220E+00
DAV:   6    -0.366764711415E+04    0.56593E-01   -0.17887E+00  2852   0.118E+00    0.257E+00
DAV:   7    -0.366759808929E+04    0.49025E-01   -0.13935E+00  2724   0.779E-01    0.151E+00
DAV:   8    -0.366758090797E+04    0.17181E-01   -0.25251E-01  2764   0.623E-01    0.845E-01
DAV:   9    -0.366756282229E+04    0.18086E-01   -0.12262E-01  2684   0.366E-01    0.606E-01
DAV:  10    -0.366755980669E+04    0.30156E-02   -0.48840E-02  3044   0.257E-01    0.477E-01
DAV:  11    -0.366755996195E+04   -0.15526E-03   -0.12813E-02  2692   0.193E-01    0.413E-01
DAV:  12    -0.366755748666E+04    0.24753E-02   -0.53801E-03  2684   0.125E-01    0.176E-01
DAV:  13    -0.366755739537E+04    0.91291E-04   -0.18245E-03  2604   0.666E-02    0.928E-02
DAV:  14    -0.366755745029E+04   -0.54923E-04   -0.11941E-03  2636   0.320E-02    0.705E-02
DAV:  15    -0.366755743171E+04    0.18585E-04   -0.43277E-04  2668   0.264E-02    0.338E-02
DAV:  16    -0.366755746696E+04   -0.35256E-04   -0.75831E-05  2612   0.148E-02    0.255E-02
DAV:  17    -0.366755748017E+04   -0.13206E-04   -0.17375E-05  1748   0.886E-03    0.661E-03
DAV:  18    -0.366755750711E+04   -0.26939E-04   -0.12718E-05  1716   0.380E-03    0.750E-03
DAV:  19    -0.366755751896E+04   -0.11848E-04   -0.42073E-06  1716   0.246E-03    0.291E-03
DAV:  20    -0.366755753403E+04   -0.15073E-04   -0.17625E-06  1692   0.156E-03    0.250E-03
DAV:  21    -0.366755754611E+04   -0.12080E-04   -0.11385E-06  1684   0.147E-03    0.284E-03
DAV:  22    -0.366755755371E+04   -0.76035E-05   -0.72569E-07  1716   0.129E-03
   3 F= -.37140499E+04 E0= -.37139436E+04  d E =-.137425E+00
       N       E                     dE             d eps       ncg     rms          rms(c)
DAV:   1    -0.366707808384E+04    0.47946E+00   -0.84953E+01  2362   0.945E+00    0.236E+00
DAV:   2    -0.366733433790E+04   -0.25625E+00   -0.37790E+00  2804   0.168E+00    0.241E+00
DAV:   3    -0.366727914055E+04    0.55197E-01   -0.27389E+00  2764   0.127E+00    0.186E+00
DAV:   4    -0.366726809234E+04    0.11048E-01   -0.11583E+00  2828   0.734E-01    0.192E+00
DAV:   5    -0.366719522263E+04    0.72870E-01   -0.76511E-01  2732   0.712E-01    0.996E-01
DAV:   6    -0.366725500986E+04   -0.59787E-01   -0.59905E-01  2916   0.590E-01    0.212E+00
DAV:   7    -0.366719104215E+04    0.63968E-01   -0.57201E-01  2692   0.574E-01    0.725E-01
DAV:   8    -0.366719317440E+04   -0.21323E-02   -0.79167E-02  2812   0.333E-01    0.548E-01
DAV:   9    -0.366718975192E+04    0.34225E-02   -0.26102E-02  2644   0.162E-01    0.202E-01
DAV:  10    -0.366718957933E+04    0.17259E-03   -0.46441E-03  2716   0.994E-02    0.135E-01
DAV:  11    -0.366718945511E+04    0.12422E-03   -0.13997E-03  2628   0.434E-02    0.667E-02
DAV:  12    -0.366718945269E+04    0.24251E-05   -0.27553E-04  2628   0.202E-02    0.314E-02
DAV:  13    -0.366718946997E+04   -0.17282E-04   -0.87242E-05  2628   0.116E-02    0.154E-02
DAV:  14    -0.366718948602E+04   -0.16053E-04   -0.24182E-05  1948   0.650E-03    0.962E-03
DAV:  15    -0.366718949416E+04   -0.81402E-05   -0.82195E-06  1732   0.340E-03
   4 F= -.37136790E+04 E0= -.37135757E+04  d E =0.370960E+00
       N       E                     dE             d eps       ncg     rms          rms(c)
DAV:   1    -0.366760623891E+04   -0.41675E+00   -0.40132E+01  2362   0.649E+00    0.163E+00
DAV:   2    -0.366774481770E+04   -0.13858E+00   -0.19837E+00  2828   0.122E+00    0.200E+00
DAV:   3    -0.366772300342E+04    0.21814E-01   -0.22090E+00  2772   0.939E-01    0.179E+00
DAV:   4    -0.366770728043E+04    0.15723E-01   -0.10209E+00  2820   0.645E-01    0.167E+00
DAV:   5    -0.366767494794E+04    0.32332E-01   -0.11292E+00  2764   0.698E-01    0.116E+00
DAV:   6    -0.366767493882E+04    0.91180E-05   -0.27740E-01  2820   0.552E-01    0.961E-01
DAV:   7    -0.366766239453E+04    0.12544E-01   -0.14113E-01  2700   0.313E-01    0.677E-01
DAV:   8    -0.366765546489E+04    0.69296E-02   -0.45898E-02  2780   0.208E-01    0.392E-01
DAV:   9    -0.366765391398E+04    0.15509E-02   -0.97089E-03  2700   0.127E-01    0.141E-01
DAV:  10    -0.366765419162E+04   -0.27764E-03   -0.28093E-03  2684   0.729E-02    0.105E-01
DAV:  11    -0.366765415107E+04    0.40549E-04   -0.90570E-04  2548   0.358E-02    0.552E-02
DAV:  12    -0.366765413216E+04    0.18911E-04   -0.18463E-04  2700   0.159E-02    0.249E-02
DAV:  13    -0.366765413481E+04   -0.26523E-05   -0.41254E-05  2348   0.101E-02
   5 F= -.37141458E+04 E0= -.37140406E+04  d E =-.959268E-01
       N       E                     dE             d eps       ncg     rms          rms(c)
DAV:   1    -0.366766610349E+04   -0.11971E-01   -0.29090E+01  2362   0.546E+00    0.129E+00
DAV:   2    -0.366774499641E+04   -0.78893E-01   -0.10547E+00  2780   0.860E-01    0.148E+00
DAV:   3    -0.366776146463E+04   -0.16468E-01   -0.16274E+00  2740   0.769E-01    0.161E+00
DAV:   4    -0.366773879787E+04    0.22667E-01   -0.61579E-01  2972   0.647E-01    0.105E+00
DAV:   5    -0.366771069702E+04    0.28101E-01   -0.11867E-01  2756   0.366E-01    0.715E-01
DAV:   6    -0.366772031869E+04   -0.96217E-02   -0.12700E-01  2900   0.415E-01    0.104E+00
DAV:   7    -0.366770350695E+04    0.16812E-01   -0.45545E-02  2700   0.326E-01    0.340E-01
DAV:   8    -0.366770432951E+04   -0.82257E-03   -0.23559E-02  2588   0.141E-01    0.219E-01
DAV:   9    -0.366770412310E+04    0.20641E-03   -0.90758E-03  2620   0.733E-02    0.163E-01
DAV:  10    -0.366770380658E+04    0.31652E-03   -0.26197E-03  2684   0.563E-02    0.838E-02
DAV:  11    -0.366770375351E+04    0.53072E-04   -0.82723E-04  2740   0.380E-02    0.412E-02
DAV:  12    -0.366770374687E+04    0.66423E-05   -0.21258E-04  2620   0.194E-02    0.201E-02
DAV:  13    -0.366770374628E+04    0.58737E-06   -0.43781E-05  2324   0.997E-03
   6 F= -.37141954E+04 E0= -.37140908E+04  d E =-.495761E-01
       N       E                     dE             d eps       ncg     rms          rms(c)
DAV:   1    -0.366773951094E+04   -0.35764E-01   -0.46768E+00  2362   0.219E+00    0.517E-01
DAV:   2    -0.366775271052E+04   -0.13200E-01   -0.13205E-01  2780   0.361E-01    0.558E-01
DAV:   3    -0.366775553581E+04   -0.28253E-02   -0.16584E-01  2708   0.312E-01    0.729E-01
DAV:   4    -0.366774635732E+04    0.91785E-02   -0.45033E-02  2692   0.246E-01    0.375E-01
DAV:   5    -0.366774723966E+04   -0.88233E-03   -0.52021E-03  2788   0.167E-01    0.327E-01
DAV:   6    -0.366774781010E+04   -0.57044E-03   -0.13031E-02  2780   0.144E-01    0.377E-01
DAV:   7    -0.366774538776E+04    0.24223E-02   -0.90022E-03  2740   0.125E-01    0.131E-01
DAV:   8    -0.366774567716E+04   -0.28940E-03   -0.16918E-03  2580   0.606E-02    0.140E-01
DAV:   9    -0.366774535789E+04    0.31927E-03   -0.18281E-03  2572   0.354E-02    0.381E-02
DAV:  10    -0.366774539039E+04   -0.32502E-04   -0.17688E-04  2724   0.147E-02    0.190E-02
DAV:  11    -0.366774539190E+04   -0.15121E-05   -0.50155E-05  2356   0.808E-03
   7 F= -.37142371E+04 E0= -.37141323E+04  d E =-.912733E-01
       N       E                     dE             d eps       ncg     rms          rms(c)
DAV:   1    -0.366781164333E+04   -0.66253E-01   -0.45807E+00  2362   0.215E+00    0.502E-01
DAV:   2    -0.366782640735E+04   -0.14764E-01   -0.17643E-01  2788   0.356E-01    0.658E-01
DAV:   3    -0.366782676137E+04   -0.35402E-03   -0.22176E-01  2748   0.329E-01    0.661E-01
DAV:   4    -0.366782214255E+04    0.46188E-02   -0.65553E-03  2852   0.254E-01    0.450E-01
DAV:   5    -0.366781756291E+04    0.45796E-02   -0.37672E-03  2804   0.144E-01    0.180E-01
DAV:   6    -0.366782157519E+04   -0.40123E-02   -0.56345E-03  2852   0.129E-01    0.484E-01
DAV:   7    -0.366781734079E+04    0.42344E-02   -0.52585E-03  2684   0.131E-01    0.115E-01
DAV:   8    -0.366781797063E+04   -0.62984E-03   -0.28079E-03  2620   0.482E-02    0.121E-01
DAV:   9    -0.366781777410E+04    0.19653E-03   -0.20122E-03  2692   0.323E-02    0.476E-02
DAV:  10    -0.366781778137E+04   -0.72651E-05   -0.27396E-04  2652   0.171E-02    0.237E-02
DAV:  11    -0.366781777677E+04    0.45964E-05   -0.56293E-05  2460   0.918E-03
   8 F= -.37143093E+04 E0= -.37142049E+04  d E =-.721696E-01
       N       E                     dE             d eps       ncg     rms          rms(c)
DAV:   1    -0.366782944764E+04   -0.11666E-01   -0.22773E+00  2362   0.151E+00    0.352E-01
DAV:   2    -0.366783647588E+04   -0.70282E-02   -0.87597E-02  2788   0.248E-01    0.439E-01
DAV:   3    -0.366783729777E+04   -0.82189E-03   -0.95480E-02  2748   0.229E-01    0.479E-01
DAV:   4    -0.366783439961E+04    0.28982E-02   -0.35034E-03  2796   0.177E-01    0.314E-01
DAV:   5    -0.366783248620E+04    0.19134E-02   -0.18516E-03  2788   0.100E-01    0.129E-01
DAV:   6    -0.366783386756E+04   -0.13814E-02   -0.21889E-03  2756   0.780E-02    0.279E-01
DAV:   7    -0.366783247541E+04    0.13922E-02   -0.18249E-03  2724   0.812E-02    0.794E-02
DAV:   8    -0.366783268740E+04   -0.21200E-03   -0.12766E-03  2620   0.343E-02    0.862E-02
DAV:   9    -0.366783258717E+04    0.10024E-03   -0.10318E-03  2668   0.225E-02    0.350E-02
DAV:  10    -0.366783258817E+04   -0.10061E-05   -0.14249E-04  2532   0.130E-02    0.154E-02
DAV:  11    -0.366783258728E+04    0.89244E-06   -0.26021E-05  1884   0.632E-03
   9 F= -.37143239E+04 E0= -.37142197E+04  d E =-.868100E-01
       N       E                     dE             d eps       ncg     rms          rms(c)
DAV:   1    -0.366789636958E+04   -0.63781E-01   -0.39082E+00  2362   0.199E+00    0.400E-01
DAV:   2    -0.366790999250E+04   -0.13623E-01   -0.16431E-01  2724   0.328E-01    0.571E-01
DAV:   3    -0.366790765118E+04    0.23413E-02   -0.17834E-01  2748   0.286E-01    0.457E-01
DAV:   4    -0.366790614979E+04    0.15014E-02   -0.28672E-03  2892   0.214E-01    0.390E-01
DAV:   5    -0.366790282239E+04    0.33274E-02   -0.19863E-03  2660   0.130E-01    0.177E-01
DAV:   6    -0.366790494418E+04   -0.21218E-02   -0.44052E-03  2964   0.107E-01    0.368E-01
DAV:   7    -0.366790291770E+04    0.20265E-02   -0.44560E-03  2660   0.935E-02    0.153E-01
DAV:   8    -0.366790297875E+04   -0.61056E-04   -0.37204E-03  2684   0.414E-02    0.861E-02
DAV:   9    -0.366790288844E+04    0.90313E-04   -0.63137E-04  2556   0.265E-02    0.273E-02
DAV:  10    -0.366790289797E+04   -0.95239E-05   -0.13106E-04  2708   0.139E-02    0.204E-02
DAV:  11    -0.366790289519E+04    0.27741E-05   -0.33907E-05  1940   0.749E-03
  10 F= -.37143945E+04 E0= -.37142908E+04  d E =-.705973E-01
       N       E                     dE             d eps       ncg     rms          rms(c)
DAV:   1    -0.366793475957E+04   -0.31862E-01   -0.18769E+01  2362   0.436E+00    0.871E-01
DAV:   2    -0.366799362288E+04   -0.58863E-01   -0.71341E-01  2724   0.695E-01    0.118E+00
DAV:   3    -0.366798836580E+04    0.52571E-02   -0.91690E-01  2756   0.608E-01    0.945E-01
DAV:   4    -0.366798254692E+04    0.58189E-02   -0.14704E-02  3052   0.467E-01    0.739E-01
DAV:   5    -0.366796836662E+04    0.14180E-01   -0.96222E-03  2732   0.264E-01    0.458E-01
DAV:   6    -0.366797147980E+04   -0.31132E-02   -0.14637E-02  2892   0.212E-01    0.633E-01
DAV:   7    -0.366796909182E+04    0.23880E-02   -0.23403E-02  2764   0.204E-01    0.463E-01
DAV:   8    -0.366796759963E+04    0.14922E-02   -0.27068E-02  2684   0.109E-01    0.297E-01
DAV:   9    -0.366796635259E+04    0.12470E-02   -0.40033E-03  2740   0.745E-02    0.102E-01
DAV:  10    -0.366796633707E+04    0.15523E-04   -0.88516E-04  2636   0.467E-02    0.533E-02
DAV:  11    -0.366796640229E+04   -0.65215E-04   -0.39988E-04  2724   0.330E-02    0.529E-02
DAV:  12    -0.366796635416E+04    0.48130E-04   -0.15344E-04  2484   0.171E-02    0.236E-02
DAV:  13    -0.366796634908E+04    0.50748E-05   -0.31987E-05  2116   0.958E-03
  11 F= -.37144586E+04 E0= -.37143558E+04  d E =-.134663E+00
       N       E                     dE             d eps       ncg     rms          rms(c)
DAV:   1    -0.366801525248E+04   -0.48898E-01   -0.83181E+00  2354   0.291E+00    0.672E-01
DAV:   2    -0.366804250962E+04   -0.27257E-01   -0.34523E-01  2724   0.488E-01    0.836E-01
DAV:   3    -0.366803793869E+04    0.45709E-02   -0.38391E-01  2764   0.415E-01    0.604E-01
DAV:   4    -0.366803552860E+04    0.24101E-02   -0.13993E-02  2948   0.331E-01    0.557E-01
DAV:   5    -0.366802753279E+04    0.79958E-02   -0.93019E-03  2740   0.218E-01    0.263E-01
DAV:   6    -0.366803424587E+04   -0.67131E-02   -0.69762E-02  3020   0.159E-01    0.747E-01
DAV:   7    -0.366802726803E+04    0.69778E-02   -0.58369E-02  2772   0.163E-01    0.223E-01
DAV:   8    -0.366802798079E+04   -0.71276E-03   -0.38316E-03  2660   0.756E-02    0.156E-01
DAV:   9    -0.366802758983E+04    0.39096E-03   -0.12830E-03  2708   0.522E-02    0.435E-02
DAV:  10    -0.366802765167E+04   -0.61834E-04   -0.39042E-04  2732   0.239E-02    0.386E-02
DAV:  11    -0.366802763523E+04    0.16433E-04   -0.93062E-05  2692   0.123E-02    0.236E-02
DAV:  12    -0.366802762644E+04    0.87943E-05   -0.25279E-05  2004   0.943E-03
  12 F= -.37145208E+04 E0= -.37144191E+04  d E =-.621985E-01
       N       E                     dE             d eps       ncg     rms          rms(c)
DAV:   1    -0.366802907910E+04   -0.14439E-02   -0.42248E-01  2362   0.657E-01    0.153E-01
DAV:   2    -0.366803049390E+04   -0.14148E-02   -0.11355E-02  2724   0.113E-01    0.178E-01
DAV:   3    -0.366803035030E+04    0.14360E-03   -0.29964E-03  2716   0.100E-01    0.162E-01
DAV:   4    -0.366803006118E+04    0.28912E-03   -0.47354E-04  2852   0.780E-02    0.137E-01
DAV:   5    -0.366802970827E+04    0.35290E-03   -0.33180E-04  2684   0.516E-02    0.640E-02
DAV:   6    -0.366803011918E+04   -0.41090E-03   -0.68673E-04  2948   0.456E-02    0.152E-01
DAV:   7    -0.366802967480E+04    0.44438E-03   -0.47692E-04  2724   0.373E-02    0.454E-02
DAV:   8    -0.366802973054E+04   -0.55749E-04   -0.48439E-04  2684   0.145E-02    0.381E-02
DAV:   9    -0.366802971640E+04    0.14145E-04   -0.13839E-04  1852   0.109E-02    0.116E-02
DAV:  10    -0.366802971782E+04   -0.14183E-05   -0.15711E-05  1772   0.595E-03
  13 F= -.37145231E+04 E0= -.37144215E+04  d E =-.644944E-01
       N       E                     dE             d eps       ncg     rms          rms(c)
DAV:   1    -0.366808004546E+04   -0.50329E-01   -0.47625E+00  2362   0.221E+00    0.450E-01
DAV:   2    -0.366809650684E+04   -0.16461E-01   -0.18418E-01  2708   0.378E-01    0.613E-01
DAV:   3    -0.366809314048E+04    0.33664E-02   -0.17278E-01  2748   0.319E-01    0.448E-01
DAV:   4    -0.366809150357E+04    0.16369E-02   -0.37419E-03  2948   0.238E-01    0.385E-01
DAV:   5    -0.366808788578E+04    0.36178E-02   -0.21723E-03  2692   0.140E-01    0.164E-01
DAV:   6    -0.366809127040E+04   -0.33846E-02   -0.60955E-03  3036   0.122E-01    0.446E-01
DAV:   7    -0.366808784272E+04    0.34277E-02   -0.37914E-03  2740   0.109E-01    0.161E-01
DAV:   8    -0.366808821006E+04   -0.36735E-03   -0.37829E-03  2652   0.429E-02    0.106E-01
DAV:   9    -0.366808803775E+04    0.17231E-03   -0.66823E-04  2644   0.290E-02    0.329E-02
DAV:  10    -0.366808804751E+04   -0.97591E-05   -0.16686E-04  2716   0.159E-02    0.217E-02
DAV:  11    -0.366808804837E+04   -0.85385E-06   -0.51167E-05  2324   0.881E-03
  14 F= -.37145820E+04 E0= -.37144817E+04  d E =-.589378E-01
       N       E                     dE             d eps       ncg     rms          rms(c)
DAV:   1    -0.366810049042E+04   -0.12443E-01   -0.21937E+01  2362   0.474E+00    0.953E-01
DAV:   2    -0.366815952241E+04   -0.59032E-01   -0.71596E-01  2700   0.756E-01    0.107E+00
DAV:   3    -0.366815818077E+04    0.13416E-02   -0.81992E-01  2748   0.613E-01    0.831E-01
DAV:   4    -0.366815299305E+04    0.51877E-02   -0.55897E-02  2964   0.462E-01    0.755E-01
DAV:   5    -0.366814118385E+04    0.11809E-01   -0.60304E-02  2788   0.251E-01    0.552E-01
DAV:   6    -0.366814290900E+04   -0.17252E-02   -0.56696E-02  2948   0.240E-01    0.626E-01
DAV:   7    -0.366814146043E+04    0.14486E-02   -0.38863E-02  2716   0.252E-01    0.458E-01
DAV:   8    -0.366813916254E+04    0.22979E-02   -0.15956E-02  2620   0.126E-01    0.254E-01
DAV:   9    -0.366813804684E+04    0.11157E-02   -0.29536E-03  2652   0.763E-02    0.832E-02
DAV:  10    -0.366813807544E+04   -0.28600E-04   -0.92505E-04  2676   0.442E-02    0.504E-02
DAV:  11    -0.366813810862E+04   -0.33187E-04   -0.32860E-04  2708   0.237E-02    0.393E-02
DAV:  12    -0.366813808727E+04    0.21358E-04   -0.71878E-05  2604   0.145E-02    0.194E-02
DAV:  13    -0.366813808625E+04    0.10167E-05   -0.21102E-05  2060   0.104E-02
  15 F= -.37146333E+04 E0= -.37145354E+04  d E =-.110240E+00
       N       E                     dE             d eps       ncg     rms          rms(c)
DAV:   1    -0.366819225514E+04   -0.54168E-01   -0.84607E+00  2362   0.293E+00    0.596E-01
DAV:   2    -0.366821945373E+04   -0.27199E-01   -0.31268E-01  2716   0.520E-01    0.799E-01
DAV:   3    -0.366821696466E+04    0.24891E-02   -0.33402E-01  2700   0.468E-01    0.717E-01
DAV:   4    -0.366821201984E+04    0.49448E-02   -0.72054E-03  2828   0.303E-01    0.479E-01
DAV:   5    -0.366820742169E+04    0.45981E-02   -0.81645E-03  2692   0.169E-01    0.334E-01
DAV:   6    -0.366820778772E+04   -0.36603E-03   -0.88698E-03  2820   0.142E-01    0.364E-01
DAV:   7    -0.366820677194E+04    0.10158E-02   -0.97443E-03  2716   0.120E-01    0.210E-01
DAV:   8    -0.366820675473E+04    0.17215E-04   -0.82873E-03  2668   0.658E-02    0.168E-01
DAV:   9    -0.366820626417E+04    0.49056E-03   -0.15337E-03  2652   0.438E-02    0.545E-02
DAV:  10    -0.366820627800E+04   -0.13826E-04   -0.31276E-04  2692   0.248E-02    0.279E-02
DAV:  11    -0.366820630127E+04   -0.23272E-04   -0.11452E-04  2700   0.142E-02    0.237E-02
DAV:  12    -0.366820629071E+04    0.10561E-04   -0.27186E-05  1988   0.973E-03    0.923E-03
DAV:  13    -0.366820629445E+04   -0.37382E-05   -0.13820E-05  1812   0.440E-03
  16 F= -.37147029E+04 E0= -.37146061E+04  d E =-.696035E-01
       N       E                     dE             d eps       ncg     rms          rms(c)
DAV:   1    -0.366820790346E+04   -0.16128E-02   -0.26066E+01  2362   0.514E+00    0.102E+00
DAV:   2    -0.366826721630E+04   -0.59313E-01   -0.72856E-01  2700   0.820E-01    0.958E-01
DAV:   3    -0.366829173220E+04   -0.24516E-01   -0.81268E-01  2700   0.730E-01    0.142E+00
DAV:   4    -0.366826305320E+04    0.28679E-01   -0.31894E-01  2748   0.496E-01    0.676E-01
DAV:   5    -0.366825690888E+04    0.61443E-02   -0.55460E-02  2692   0.270E-01    0.578E-01
DAV:   6    -0.366825613657E+04    0.77231E-03   -0.83563E-02  2756   0.236E-01    0.591E-01
DAV:   7    -0.366825385679E+04    0.22798E-02   -0.16940E-02  2772   0.215E-01    0.266E-01
DAV:   8    -0.366825267339E+04    0.11834E-02   -0.71052E-03  2588   0.116E-01    0.138E-01
DAV:   9    -0.366825270147E+04   -0.28079E-04   -0.31884E-03  2764   0.558E-02    0.118E-01
DAV:  10    -0.366825257096E+04    0.13051E-03   -0.12533E-03  2652   0.363E-02    0.534E-02
DAV:  11    -0.366825258035E+04   -0.93831E-05   -0.30168E-04  2660   0.198E-02    0.306E-02
DAV:  12    -0.366825256758E+04    0.12768E-04   -0.66196E-05  2524   0.141E-02    0.141E-02
DAV:  13    -0.366825257433E+04   -0.67481E-05   -0.33867E-05  2204   0.798E-03
  17 F= -.37147516E+04 E0= -.37146572E+04  d E =-.118307E+00
       N       E                     dE             d eps       ncg     rms          rms(c)
DAV:   1    -0.366829460053E+04   -0.42033E-01   -0.34585E+00  2354   0.187E+00    0.372E-01
DAV:   2    -0.366830353099E+04   -0.89305E-02   -0.79096E-02  2708   0.327E-01    0.381E-01
DAV:   3    -0.366830536336E+04   -0.18324E-02   -0.17744E-02  2716   0.293E-01    0.483E-01
DAV:   4    -0.366830154236E+04    0.38210E-02   -0.31210E-03  2716   0.182E-01    0.257E-01
DAV:   5    -0.366830109206E+04    0.45030E-03   -0.22876E-03  2644   0.105E-01    0.222E-01
DAV:   6    -0.366830083743E+04    0.25463E-03   -0.30330E-03  2780   0.873E-02    0.184E-01
DAV:   7    -0.366830083051E+04    0.69296E-05   -0.44255E-03  2588   0.568E-02    0.141E-01
DAV:   8    -0.366830060427E+04    0.22624E-03   -0.29195E-03  2652   0.371E-02    0.626E-02
DAV:   9    -0.366830057901E+04    0.25255E-04   -0.29895E-04  2620   0.225E-02    0.234E-02
DAV:  10    -0.366830058798E+04   -0.89687E-05   -0.97096E-05  2596   0.121E-02
  18 F= -.37148006E+04 E0= -.37147074E+04  d E =-.489431E-01
       N       E                     dE             d eps       ncg     rms          rms(c)
DAV:   1    -0.366832962916E+04   -0.29050E-01   -0.31140E+01  2354   0.561E+00    0.110E+00
DAV:   2    -0.366839132499E+04   -0.61696E-01   -0.75543E-01  2700   0.836E-01    0.764E-01
DAV:   3    -0.366841727256E+04   -0.25948E-01   -0.27649E-01  2732   0.550E-01    0.142E+00
DAV:   4    -0.366838549470E+04    0.31778E-01   -0.28145E-01  2652   0.449E-01    0.565E-01
DAV:   5    -0.366839784651E+04   -0.12352E-01   -0.12037E-01  2836   0.320E-01    0.755E-01
DAV:   6    -0.366838773845E+04    0.10108E-01   -0.14576E-01  2748   0.298E-01    0.472E-01
DAV:   7    -0.366838678295E+04    0.95550E-03   -0.25834E-02  2684   0.154E-01    0.228E-01
DAV:   8    -0.366838685561E+04   -0.72660E-04   -0.73588E-03  2636   0.868E-02    0.186E-01
DAV:   9    -0.366838622990E+04    0.62571E-03   -0.16644E-03  2628   0.570E-02    0.644E-02
DAV:  10    -0.366838628547E+04   -0.55573E-04   -0.58601E-04  2708   0.326E-02    0.370E-02
DAV:  11    -0.366838630200E+04   -0.16524E-04   -0.16946E-04  2652   0.175E-02    0.247E-02
DAV:  12    -0.366838631187E+04   -0.98697E-05   -0.61970E-05  2540   0.102E-02
  19 F= -.37148891E+04 E0= -.37147987E+04  d E =-.137462E+00
       N       E                     dE             d eps       ncg     rms          rms(c)
DAV:   1    -0.366838166902E+04    0.46330E-02   -0.74647E+00  2354   0.275E+00    0.538E-01
DAV:   2    -0.366839645817E+04   -0.14789E-01   -0.17930E-01  2676   0.408E-01    0.377E-01
DAV:   3    -0.366840261702E+04   -0.61588E-02   -0.36043E-02  2692   0.266E-01    0.672E-01
DAV:   4    -0.366839484844E+04    0.77686E-02   -0.34108E-02  2604   0.217E-01    0.290E-01
DAV:   5    -0.366839958867E+04   -0.47402E-02   -0.36345E-02  2884   0.175E-01    0.465E-01
DAV:   6    -0.366839486019E+04    0.47285E-02   -0.29412E-02  2668   0.151E-01    0.140E-01
DAV:   7    -0.366839579831E+04   -0.93812E-03   -0.76590E-03  2732   0.731E-02    0.194E-01
DAV:   8    -0.366839521139E+04    0.58692E-03   -0.29257E-03  2628   0.468E-02    0.459E-02
DAV:   9    -0.366839527619E+04   -0.64796E-04   -0.19391E-04  2604   0.184E-02    0.280E-02
DAV:  10    -0.366839528331E+04   -0.71218E-05   -0.93098E-05  2652   0.112E-02
  20 F= -.37148994E+04 E0= -.37148108E+04  d E =-.147804E+00
       N       E                     dE             d eps       ncg     rms          rms(c)
DAV:   1    -0.366844754137E+04   -0.52265E-01   -0.87335E+00  2354   0.295E+00    0.553E-01
DAV:   2    -0.366846486610E+04   -0.17325E-01   -0.20582E-01  2676   0.404E-01    0.348E-01
DAV:   3    -0.366846650503E+04   -0.16389E-02   -0.92281E-03  2732   0.134E-01    0.426E-01
DAV:   4    -0.366846572783E+04    0.77721E-03   -0.26824E-02  2748   0.146E-01    0.388E-01
DAV:   5    -0.366846600821E+04   -0.28039E-03   -0.19386E-02  2724   0.138E-01    0.295E-01
DAV:   6    -0.366846442184E+04    0.15864E-02   -0.93497E-03  2644   0.114E-01    0.130E-01
DAV:   7    -0.366846490248E+04   -0.48063E-03   -0.47211E-03  2724   0.676E-02    0.150E-01
DAV:   8    -0.366846445561E+04    0.44687E-03   -0.13327E-03  2484   0.518E-02    0.418E-02
DAV:   9    -0.366846449821E+04   -0.42598E-04   -0.17891E-04  2652   0.169E-02    0.240E-02
DAV:  10    -0.366846450524E+04   -0.70339E-05   -0.49281E-05  2556   0.857E-03
  21 F= -.37149696E+04 E0= -.37148830E+04  d E =-.702015E-01
       N       E                     dE             d eps       ncg     rms          rms(c)
DAV:   1    -0.366843777955E+04    0.26719E-01   -0.78487E+01  2354   0.882E+00    0.167E+00
DAV:   2    -0.366860816677E+04   -0.17039E+00   -0.19562E+00  2676   0.118E+00    0.107E+00
DAV:   3    -0.366862543986E+04   -0.17273E-01   -0.16708E-01  2844   0.427E-01    0.140E+00
DAV:   4    -0.366860579058E+04    0.19649E-01   -0.51678E-01  2828   0.450E-01    0.975E-01
DAV:   5    -0.366861809756E+04   -0.12307E-01   -0.10522E-01  2892   0.421E-01    0.112E+00
DAV:   6    -0.366859941622E+04    0.18681E-01   -0.23334E-02  2660   0.472E-01    0.316E-01
DAV:   7    -0.366860148878E+04   -0.20726E-02   -0.19234E-02  2572   0.143E-01    0.327E-01
DAV:   8    -0.366860014096E+04    0.13478E-02   -0.82519E-03  2700   0.754E-02    0.179E-01
DAV:   9    -0.366859973329E+04    0.40767E-03   -0.13989E-03  2684   0.559E-02    0.923E-02
DAV:  10    -0.366859973619E+04   -0.28973E-05   -0.62273E-04  2692   0.460E-02    0.420E-02
DAV:  11    -0.366859985753E+04   -0.12134E-03   -0.33921E-04  2660   0.236E-02    0.302E-02
DAV:  12    -0.366859990896E+04   -0.51429E-04   -0.71933E-05  2652   0.924E-03    0.201E-02
DAV:  13    -0.366859995974E+04   -0.50780E-04   -0.17991E-05  1892   0.490E-03    0.103E-02
DAV:  14    -0.366860000407E+04   -0.44329E-04   -0.10102E-05  1844   0.442E-03    0.412E-03
DAV:  15    -0.366860003194E+04   -0.27866E-04   -0.56940E-06  1796   0.250E-03    0.333E-03
DAV:  16    -0.366860005179E+04   -0.19851E-04   -0.21958E-06  1772   0.135E-03    0.238E-03
DAV:  17    -0.366860007409E+04   -0.22306E-04   -0.26531E-06  1780   0.116E-03    0.153E-03
DAV:  18    -0.366860008516E+04   -0.11066E-04   -0.12502E-06  1780   0.829E-04    0.928E-04
DAV:  19    -0.366860009078E+04   -0.56155E-05   -0.71842E-07  1748   0.606E-04
  22 F= -.37151084E+04 E0= -.37150242E+04  d E =-.208969E+00
       N       E                     dE             d eps       ncg     rms          rms(c)
DAV:   1    -0.366770167136E+04    0.89841E+00   -0.31310E+02  2354   0.176E+01    0.349E+00
DAV:   2    -0.366847289963E+04   -0.77123E+00   -0.88073E+00  2660   0.243E+00    0.224E+00
DAV:   3    -0.366851666345E+04   -0.43764E-01   -0.12992E+00  2772   0.859E-01    0.251E+00
DAV:   4    -0.366846408018E+04    0.52583E-01   -0.22797E+00  2756   0.914E-01    0.177E+00
DAV:   5    -0.366847375063E+04   -0.96704E-02   -0.27787E-01  2692   0.753E-01    0.204E+00
DAV:   6    -0.366843972836E+04    0.34022E-01   -0.97528E-01  2668   0.855E-01    0.851E-01
DAV:   7    -0.366844242416E+04   -0.26958E-02   -0.90943E-02  2676   0.273E-01    0.635E-01
DAV:   8    -0.366843630913E+04    0.61150E-02   -0.55347E-02  2740   0.228E-01    0.485E-01
DAV:   9    -0.366843363288E+04    0.26762E-02   -0.16482E-02  2612   0.154E-01    0.271E-01
DAV:  10    -0.366843140626E+04    0.22266E-02   -0.42346E-03  2756   0.150E-01    0.142E-01
DAV:  11    -0.366843169703E+04   -0.29077E-03   -0.24571E-03  2788   0.117E-01    0.712E-02
DAV:  12    -0.366843247532E+04   -0.77829E-03   -0.24780E-03  2676   0.506E-02    0.779E-02
DAV:  13    -0.366843252939E+04   -0.54069E-04   -0.10091E-04  2812   0.170E-02    0.577E-02
DAV:  14    -0.366843284952E+04   -0.32013E-03   -0.25974E-04  2596   0.171E-02    0.233E-02
DAV:  15    -0.366843315594E+04   -0.30642E-03   -0.10090E-04  2708   0.113E-02    0.161E-02
DAV:  16    -0.366843330302E+04   -0.14708E-03   -0.22954E-05  2076   0.615E-03    0.124E-02
DAV:  17    -0.366843342590E+04   -0.12288E-03   -0.17880E-05  1924   0.442E-03    0.825E-03
DAV:  18    -0.366843364464E+04   -0.21874E-03   -0.32402E-05  2028   0.821E-03    0.103E-02
DAV:  19    -0.366843371975E+04   -0.75109E-04   -0.13519E-05  1916   0.395E-03    0.651E-03
DAV:  20    -0.366843375563E+04   -0.35878E-04   -0.50659E-06  1796   0.266E-03    0.412E-03
DAV:  21    -0.366843378787E+04   -0.32241E-04   -0.30507E-06  1828   0.290E-03    0.285E-03
DAV:  22    -0.366843381194E+04   -0.24067E-04   -0.31182E-06  1780   0.133E-03    0.238E-03
DAV:  23    -0.366843381790E+04   -0.59616E-05   -0.76495E-07  1812   0.774E-04
  23 F= -.37149500E+04 E0= -.37148664E+04  d E =-.505374E-01
       N       E                     dE             d eps       ncg     rms          rms(c)
DAV:   1    -0.366823779577E+04    0.19602E+00   -0.18956E+02  2362   0.137E+01    0.260E+00
DAV:   2    -0.366864691404E+04   -0.40912E+00   -0.47028E+00  2668   0.182E+00    0.166E+00
DAV:   3    -0.366867901077E+04   -0.32097E-01   -0.63107E-01  2860   0.634E-01    0.207E+00
DAV:   4    -0.366863674680E+04    0.42264E-01   -0.10983E+00  2788   0.723E-01    0.145E+00
DAV:   5    -0.366863916522E+04   -0.24184E-02   -0.18671E-01  2716   0.543E-01    0.826E-01
DAV:   6    -0.366862801437E+04    0.11151E-01   -0.18129E-01  2660   0.450E-01    0.743E-01
DAV:   7    -0.366862049622E+04    0.75181E-02   -0.27748E-02  2772   0.202E-01    0.422E-01
DAV:   8    -0.366861839532E+04    0.21009E-02   -0.61263E-03  2748   0.140E-01    0.182E-01
DAV:   9    -0.366861904952E+04   -0.65419E-03   -0.40314E-03  2804   0.135E-01    0.172E-01
DAV:  10    -0.366861885018E+04    0.19934E-03   -0.22368E-03  2572   0.112E-01    0.962E-02
DAV:  11    -0.366861871794E+04    0.13223E-03   -0.30977E-04  2620   0.569E-02    0.604E-02
DAV:  12    -0.366861876776E+04   -0.49814E-04   -0.36977E-04  2644   0.242E-02    0.262E-02
DAV:  13    -0.366861883393E+04   -0.66172E-04   -0.10568E-04  2692   0.124E-02    0.172E-02
DAV:  14    -0.366861889835E+04   -0.64420E-04   -0.34432E-05  2268   0.771E-03    0.971E-03
DAV:  15    -0.366861896123E+04   -0.62882E-04   -0.10919E-05  1828   0.383E-03    0.743E-03
DAV:  16    -0.366861905130E+04   -0.90067E-04   -0.97034E-06  1836   0.326E-03    0.464E-03
DAV:  17    -0.366861911344E+04   -0.62147E-04   -0.52901E-06  1820   0.335E-03    0.345E-03
DAV:  18    -0.366861915822E+04   -0.44774E-04   -0.41502E-06  1804   0.199E-03    0.220E-03
DAV:  19    -0.366861918681E+04   -0.28595E-04   -0.28556E-06  1804   0.123E-03    0.130E-03
DAV:  20    -0.366861920150E+04   -0.14684E-04   -0.10451E-06  1772   0.723E-04    0.117E-03
DAV:  21    -0.366861921029E+04   -0.87967E-05   -0.64069E-07  1748   0.598E-04
  24 F= -.37151291E+04 E0= -.37150451E+04  d E =-.229692E+00
       N       E                     dE             d eps       ncg     rms          rms(c)
DAV:   1    -0.366867609816E+04   -0.56897E-01   -0.28092E+01  2354   0.528E+00    0.109E+00
DAV:   2    -0.366873545175E+04   -0.59354E-01   -0.73302E-01  2708   0.725E-01    0.740E-01
DAV:   3    -0.366873452163E+04    0.93012E-03   -0.43044E-02  2820   0.318E-01    0.635E-01
DAV:   4    -0.366873887450E+04   -0.43529E-02   -0.17195E-01  2780   0.333E-01    0.945E-01
DAV:   5    -0.366873754092E+04    0.13336E-02   -0.26738E-01  2852   0.312E-01    0.826E-01
DAV:   6    -0.366872834697E+04    0.91939E-02   -0.16268E-02  2740   0.326E-01    0.199E-01
DAV:   7    -0.366872865238E+04   -0.30541E-03   -0.49205E-03  2500   0.121E-01    0.115E-01
DAV:   8    -0.366872889441E+04   -0.24202E-03   -0.30338E-03  2740   0.626E-02    0.149E-01
DAV:   9    -0.366872859921E+04    0.29520E-03   -0.21904E-03  2660   0.453E-02    0.627E-02
DAV:  10    -0.366872866835E+04   -0.69145E-04   -0.31785E-04  2644   0.211E-02    0.348E-02
DAV:  11    -0.366872871414E+04   -0.45788E-04   -0.81352E-05  2636   0.118E-02    0.174E-02
DAV:  12    -0.366872875981E+04   -0.45665E-04   -0.29200E-05  2092   0.764E-03    0.843E-03
DAV:  13    -0.366872879920E+04   -0.39397E-04   -0.12578E-05  1804   0.381E-03    0.487E-03
DAV:  14    -0.366872883339E+04   -0.34185E-04   -0.61210E-06  1812   0.235E-03    0.332E-03
DAV:  15    -0.366872885957E+04   -0.26181E-04   -0.26401E-06  1788   0.173E-03    0.265E-03
DAV:  16    -0.366872888755E+04   -0.27983E-04   -0.38672E-06  1804   0.164E-03    0.154E-03
DAV:  17    -0.366872889831E+04   -0.10754E-04   -0.12631E-06  1772   0.931E-04    0.135E-03
DAV:  18    -0.366872890722E+04   -0.89120E-05   -0.11474E-06  1764   0.752E-04
  25 F= -.37152409E+04 E0= -.37151575E+04  d E =-.111761E+00
       N       E                     dE             d eps       ncg     rms          rms(c)
DAV:   1    -0.366872985095E+04   -0.95264E-03   -0.15346E+00  2354   0.123E+00    0.253E-01
DAV:   2    -0.366873293977E+04   -0.30888E-02   -0.38942E-02  2692   0.168E-01    0.170E-01
DAV:   3    -0.366873289863E+04    0.41133E-04   -0.14309E-03  2820   0.696E-02    0.153E-01
DAV:   4    -0.366873311244E+04   -0.21381E-03   -0.27446E-03  2732   0.808E-02    0.211E-01
DAV:   5    -0.366873326093E+04   -0.14849E-03   -0.36157E-03  2884   0.742E-02    0.208E-01
DAV:   6    -0.366873248517E+04    0.77576E-03   -0.91785E-04  2732   0.723E-02    0.370E-02
DAV:   7    -0.366873258964E+04   -0.10447E-03   -0.31990E-04  2524   0.218E-02    0.334E-02
DAV:   8    -0.366873259180E+04   -0.21664E-05   -0.21826E-04  2604   0.136E-02    0.321E-02
DAV:   9    -0.366873257856E+04    0.13244E-04   -0.87251E-05  1860   0.925E-03    0.111E-02
DAV:  10    -0.366873258407E+04   -0.55113E-05   -0.15103E-05  1828   0.443E-03
  26 F= -.37152451E+04 E0= -.37151618E+04  d E =-.115947E+00
       N       E                     dE             d eps       ncg     rms          rms(c)
DAV:   1    -0.366881897666E+04   -0.86398E-01   -0.25859E+01  2354   0.499E+00    0.971E-01
DAV:   2    -0.366887537161E+04   -0.56395E-01   -0.64975E-01  2676   0.672E-01    0.623E-01
DAV:   3    -0.366887526443E+04    0.10718E-03   -0.19002E-02  2796   0.278E-01    0.531E-01
DAV:   4    -0.366887507284E+04    0.19160E-03   -0.20384E-02  2692   0.261E-01    0.593E-01
DAV:   5    -0.366888164049E+04   -0.65677E-02   -0.10999E-01  2964   0.285E-01    0.800E-01
DAV:   6    -0.366887154068E+04    0.10100E-01   -0.84378E-02  2644   0.273E-01    0.368E-01
DAV:   7    -0.366887195526E+04   -0.41458E-03   -0.20089E-02  2692   0.113E-01    0.218E-01
DAV:   8    -0.366887131618E+04    0.63908E-03   -0.35905E-03  2532   0.750E-02    0.808E-02
DAV:   9    -0.366887140002E+04   -0.83834E-04   -0.80877E-04  2620   0.318E-02    0.417E-02
DAV:  10    -0.366887148581E+04   -0.85791E-04   -0.14165E-04  2660   0.150E-02    0.245E-02
DAV:  11    -0.366887159998E+04   -0.11417E-03   -0.66650E-05  2604   0.887E-03    0.125E-02
DAV:  12    -0.366887166358E+04   -0.63604E-04   -0.17307E-05  1884   0.485E-03    0.666E-03
DAV:  13    -0.366887172439E+04   -0.60805E-04   -0.95528E-06  1812   0.300E-03    0.467E-03
DAV:  14    -0.366887177894E+04   -0.54555E-04   -0.66761E-06  1828   0.254E-03    0.315E-03
DAV:  15    -0.366887181700E+04   -0.38060E-04   -0.46865E-06  1804   0.180E-03    0.228E-03
DAV:  16    -0.366887185081E+04   -0.33806E-04   -0.43262E-06  1804   0.141E-03    0.156E-03
DAV:  17    -0.366887186729E+04   -0.16485E-04   -0.19531E-06  1780   0.902E-04    0.105E-03
DAV:  18    -0.366887187420E+04   -0.69052E-05   -0.87344E-07  1772   0.680E-04
  27 F= -.37153866E+04 E0= -.37153038E+04  d E =-.141486E+00
       N       E                     dE             d eps       ncg     rms          rms(c)
DAV:   1    -0.366883281584E+04    0.39051E-01   -0.52051E+01  2354   0.708E+00    0.140E+00
DAV:   2    -0.366895175468E+04   -0.11894E+00   -0.13612E+00  2668   0.959E-01    0.901E-01
DAV:   3    -0.366895029004E+04    0.14646E-02   -0.60178E-02  2764   0.378E-01    0.749E-01
DAV:   4    -0.366895393254E+04   -0.36425E-02   -0.79779E-02  2732   0.359E-01    0.937E-01
DAV:   5    -0.366896121577E+04   -0.72832E-02   -0.23892E-01  2900   0.410E-01    0.110E+00
DAV:   6    -0.366894557135E+04    0.15644E-01   -0.16876E-01  2596   0.400E-01    0.551E-01
DAV:   7    -0.366894578005E+04   -0.20870E-03   -0.42798E-02  2700   0.171E-01    0.326E-01
DAV:   8    -0.366894403288E+04    0.17472E-02   -0.86739E-03  2524   0.117E-01    0.138E-01
DAV:   9    -0.366894406490E+04   -0.32016E-04   -0.17815E-03  2652   0.588E-02    0.618E-02
DAV:  10    -0.366894428467E+04   -0.21977E-03   -0.56667E-04  2652   0.294E-02    0.369E-02
DAV:  11    -0.366894451579E+04   -0.23112E-03   -0.14757E-04  2604   0.169E-02    0.267E-02
DAV:  12    -0.366894465343E+04   -0.13764E-03   -0.75657E-05  2676   0.109E-02    0.123E-02
DAV:  13    -0.366894475458E+04   -0.10115E-03   -0.22103E-05  2020   0.517E-03    0.755E-03
DAV:  14    -0.366894487641E+04   -0.12184E-03   -0.17877E-05  1956   0.444E-03    0.517E-03
DAV:  15    -0.366894494208E+04   -0.65664E-04   -0.82500E-06  1860   0.260E-03    0.416E-03
DAV:  16    -0.366894499561E+04   -0.53531E-04   -0.50486E-06  1828   0.226E-03    0.249E-03
DAV:  17    -0.366894504393E+04   -0.48325E-04   -0.71249E-06  1860   0.173E-03    0.170E-03
DAV:  18    -0.366894505771E+04   -0.13777E-04   -0.15274E-06  1796   0.907E-04    0.124E-03
DAV:  19    -0.366894506938E+04   -0.11670E-04   -0.11176E-06  1748   0.655E-04    0.779E-04
DAV:  20    -0.366894507746E+04   -0.80805E-05   -0.82159E-07  1772   0.531E-04
  28 F= -.37154625E+04 E0= -.37153805E+04  d E =-.217399E+00
       N       E                     dE             d eps       ncg     rms          rms(c)
DAV:   1    -0.366903080379E+04   -0.85734E-01   -0.91335E+00  2354   0.303E+00    0.643E-01
DAV:   2    -0.366904995871E+04   -0.19155E-01   -0.24182E-01  2700   0.442E-01    0.461E-01
DAV:   3    -0.366905154650E+04   -0.15878E-02   -0.13114E-02  2796   0.220E-01    0.577E-01
DAV:   4    -0.366904899826E+04    0.25482E-02   -0.75673E-02  2764   0.198E-01    0.483E-01
DAV:   5    -0.366904926916E+04   -0.27091E-03   -0.48057E-02  2916   0.205E-01    0.352E-01
DAV:   6    -0.366904726586E+04    0.20033E-02   -0.16915E-02  2612   0.140E-01    0.237E-01
DAV:   7    -0.366904682048E+04    0.44538E-03   -0.96670E-03  2740   0.910E-02    0.145E-01
DAV:   8    -0.366904663841E+04    0.18207E-03   -0.21044E-03  2572   0.486E-02    0.499E-02
DAV:   9    -0.366904667765E+04   -0.39242E-04   -0.33916E-04  2700   0.237E-02    0.297E-02
DAV:  10    -0.366904669178E+04   -0.14127E-04   -0.80334E-05  2620   0.145E-02    0.149E-02
DAV:  11    -0.366904671802E+04   -0.26241E-04   -0.32495E-05  2284   0.758E-03    0.762E-03
DAV:  12    -0.366904673327E+04   -0.15246E-04   -0.63961E-06  1788   0.489E-03    0.532E-03
DAV:  13    -0.366904674609E+04   -0.12825E-04   -0.47912E-06  1764   0.315E-03    0.293E-03
DAV:  14    -0.366904675810E+04   -0.12003E-04   -0.29557E-06  1748   0.157E-03    0.258E-03
DAV:  15    -0.366904676785E+04   -0.97572E-05   -0.11049E-06  1740   0.105E-03
  29 F= -.37155647E+04 E0= -.37154823E+04  d E =-.102181E+00
       N       E                     dE             d eps       ncg     rms          rms(c)
DAV:   1    -0.366905691738E+04   -0.10159E-01   -0.28273E+00  2362   0.169E+00    0.359E-01
DAV:   2    -0.366906287550E+04   -0.59581E-02   -0.75309E-02  2708   0.246E-01    0.259E-01
DAV:   3    -0.366906331506E+04   -0.43955E-03   -0.39151E-03  2788   0.124E-01    0.315E-01
DAV:   4    -0.366906261407E+04    0.70098E-03   -0.75423E-03  2740   0.111E-01    0.277E-01
DAV:   5    -0.366906272213E+04   -0.10805E-03   -0.63796E-03  3004   0.116E-01    0.211E-01
DAV:   6    -0.366906184158E+04    0.88055E-03   -0.38679E-03  2564   0.861E-02    0.987E-02
DAV:   7    -0.366906196213E+04   -0.12056E-03   -0.26785E-03  2732   0.467E-02    0.100E-01
DAV:   8    -0.366906181617E+04    0.14596E-03   -0.91547E-04  2604   0.293E-02    0.296E-02
DAV:   9    -0.366906183419E+04   -0.18019E-04   -0.90756E-05  2636   0.125E-02    0.151E-02
DAV:  10    -0.366906184330E+04   -0.91178E-05   -0.24290E-05  1948   0.675E-03
  30 F= -.37155798E+04 E0= -.37154974E+04  d E =-.117376E+00
       N       E                     dE             d eps       ncg     rms          rms(c)
DAV:   1    -0.366912320014E+04   -0.61366E-01   -0.99137E+00  2354   0.317E+00    0.728E-01
DAV:   2    -0.366914241894E+04   -0.19219E-01   -0.27215E-01  2700   0.459E-01    0.532E-01
DAV:   3    -0.366914140681E+04    0.10121E-02   -0.21129E-02  2828   0.192E-01    0.510E-01
DAV:   4    -0.366914440020E+04   -0.29934E-02   -0.12630E-01  2876   0.229E-01    0.724E-01
DAV:   5    -0.366914160922E+04    0.27910E-02   -0.11165E-01  2932   0.225E-01    0.410E-01
DAV:   6    -0.366913924015E+04    0.23691E-02   -0.93852E-03  2708   0.201E-01    0.285E-01
DAV:   7    -0.366913830895E+04    0.93120E-03   -0.70769E-03  2740   0.101E-01    0.152E-01
DAV:   8    -0.366913822253E+04    0.86422E-04   -0.15360E-03  2636   0.465E-02    0.559E-02
DAV:   9    -0.366913824727E+04   -0.24746E-04   -0.29934E-04  2700   0.228E-02    0.353E-02
DAV:  10    -0.366913825641E+04   -0.91334E-05   -0.76593E-05  2652   0.136E-02
  31 F= -.37156557E+04 E0= -.37155730E+04  d E =-.758183E-01
       N       E                     dE             d eps       ncg     rms          rms(c)
DAV:   1    -0.366913838634E+04   -0.13907E-03   -0.12460E-02  2404   0.112E-01    0.279E-02
DAV:   2    -0.366913843626E+04   -0.49919E-04   -0.33295E-04  2700   0.225E-02    0.258E-02
DAV:   3    -0.366913844189E+04   -0.56315E-05   -0.43505E-05  2332   0.182E-02
  32 F= -.37156558E+04 E0= -.37155729E+04  d E =-.759743E-01
       N       E                     dE             d eps       ncg     rms          rms(c)
DAV:   1    -0.366921292767E+04   -0.74491E-01   -0.54922E+00  2354   0.237E+00    0.459E-01
DAV:   2    -0.366922348648E+04   -0.10559E-01   -0.12888E-01  2668   0.317E-01    0.343E-01
DAV:   3    -0.366922536976E+04   -0.18833E-02   -0.28060E-02  2932   0.141E-01    0.491E-01
DAV:   4    -0.366922227597E+04    0.30938E-02   -0.26542E-02  2884   0.114E-01    0.246E-01
DAV:   5    -0.366922485813E+04   -0.25822E-02   -0.73266E-03  3004   0.144E-01    0.383E-01
DAV:   6    -0.366922272738E+04    0.21308E-02   -0.33991E-03  2740   0.123E-01    0.209E-01
DAV:   7    -0.366922239878E+04    0.32860E-03   -0.12395E-03  2716   0.831E-02    0.743E-02
DAV:   8    -0.366922237814E+04    0.20634E-04   -0.48446E-04  2548   0.382E-02    0.327E-02
DAV:   9    -0.366922238867E+04   -0.10530E-04   -0.11732E-04  2660   0.119E-02    0.197E-02
DAV:  10    -0.366922240037E+04   -0.11694E-04   -0.24338E-05  2028   0.589E-03    0.101E-02
DAV:  11    -0.366922242044E+04   -0.20075E-04   -0.11287E-05  1788   0.371E-03    0.408E-03
DAV:  12    -0.366922243134E+04   -0.10901E-04   -0.29993E-06  1764   0.204E-03    0.257E-03
DAV:  13    -0.366922244029E+04   -0.89509E-05   -0.14302E-06  1740   0.121E-03
  33 F= -.37157388E+04 E0= -.37156563E+04  d E =-.829630E-01
       N       E                     dE             d eps       ncg     rms          rms(c)
DAV:   1    -0.366925411960E+04   -0.31688E-01   -0.24057E+01  2354   0.497E+00    0.960E-01
DAV:   2    -0.366930233072E+04   -0.48211E-01   -0.56025E-01  2676   0.672E-01    0.763E-01
DAV:   3    -0.366931563448E+04   -0.13304E-01   -0.17865E-01  2868   0.372E-01    0.103E+00
DAV:   4    -0.366929567863E+04    0.19956E-01   -0.11122E-01  2836   0.312E-01    0.478E-01
DAV:   5    -0.366930656462E+04   -0.10886E-01   -0.97136E-02  2876   0.306E-01    0.896E-01
DAV:   6    -0.366929669292E+04    0.98717E-02   -0.15605E-01  2716   0.249E-01    0.441E-01
DAV:   7    -0.366929631986E+04    0.37307E-03   -0.17429E-02  2756   0.165E-01    0.162E-01
DAV:   8    -0.366929595896E+04    0.36090E-03   -0.29816E-03  2492   0.864E-02    0.787E-02
DAV:   9    -0.366929594942E+04    0.95349E-05   -0.53599E-04  2700   0.282E-02    0.430E-02
DAV:  10    -0.366929599000E+04   -0.40573E-04   -0.16507E-04  2644   0.156E-02    0.211E-02
DAV:  11    -0.366929604040E+04   -0.50406E-04   -0.35551E-05  2260   0.855E-03    0.135E-02
DAV:  12    -0.366929606828E+04   -0.27882E-04   -0.14888E-05  1796   0.606E-03    0.596E-03
DAV:  13    -0.366929608918E+04   -0.20894E-04   -0.58315E-06  1772   0.263E-03    0.373E-03
DAV:  14    -0.366929611164E+04   -0.22463E-04   -0.30645E-06  1764   0.166E-03    0.231E-03
DAV:  15    -0.366929612899E+04   -0.17347E-04   -0.21196E-06  1756   0.111E-03    0.166E-03
DAV:  16    -0.366929613948E+04   -0.10496E-04   -0.92089E-07  1748   0.888E-04    0.119E-03
DAV:  17    -0.366929615165E+04   -0.12168E-04   -0.15459E-06  1724   0.815E-04    0.704E-04
DAV:  18    -0.366929615566E+04   -0.40103E-05   -0.57304E-07  1740   0.484E-04
  34 F= -.37158095E+04 E0= -.37157276E+04  d E =-.153693E+00
       N       E                     dE             d eps       ncg     rms          rms(c)
DAV:   1    -0.366936144252E+04   -0.65291E-01   -0.11094E+01  2362   0.336E+00    0.656E-01
DAV:   2    -0.366938663378E+04   -0.25191E-01   -0.30726E-01  2668   0.472E-01    0.694E-01
DAV:   3    -0.366939570208E+04   -0.90683E-02   -0.22372E-01  2844   0.330E-01    0.102E+00
DAV:   4    -0.366937814886E+04    0.17553E-01   -0.22664E-02  2668   0.224E-01    0.284E-01
DAV:   5    -0.366938536825E+04   -0.72194E-02   -0.40007E-02  3036   0.183E-01    0.622E-01
DAV:   6    -0.366937956517E+04    0.58031E-02   -0.44189E-02  2812   0.141E-01    0.172E-01
DAV:   7    -0.366938022784E+04   -0.66268E-03   -0.36763E-03  2676   0.100E-01    0.112E-01
DAV:   8    -0.366938003932E+04    0.18853E-03   -0.12132E-03  2484   0.519E-02    0.444E-02
DAV:   9    -0.366938005032E+04   -0.11007E-04   -0.23972E-04  2740   0.180E-02    0.270E-02
DAV:  10    -0.366938005760E+04   -0.72711E-05   -0.56581E-05  2628   0.831E-03
  35 F= -.37158922E+04 E0= -.37158105E+04  d E =-.826713E-01
       N       E                     dE             d eps       ncg     rms          rms(c)
DAV:   1    -0.366938971307E+04   -0.96628E-02   -0.71995E+00  2362   0.270E+00    0.530E-01
DAV:   2    -0.366940611731E+04   -0.16404E-01   -0.19752E-01  2684   0.380E-01    0.565E-01
DAV:   3    -0.366941209526E+04   -0.59780E-02   -0.12425E-01  2844   0.267E-01    0.839E-01
DAV:   4    -0.366940039619E+04    0.11699E-01   -0.12427E-02  2676   0.180E-01    0.219E-01
DAV:   5    -0.366940467602E+04   -0.42798E-02   -0.16218E-02  2964   0.146E-01    0.440E-01
DAV:   6    -0.366940155209E+04    0.31239E-02   -0.20273E-02  2748   0.114E-01    0.128E-01
DAV:   7    -0.366940198911E+04   -0.43702E-03   -0.27451E-03  2692   0.692E-02    0.962E-02
DAV:   8    -0.366940183054E+04    0.15857E-03   -0.84706E-04  2492   0.423E-02    0.366E-02
DAV:   9    -0.366940184094E+04   -0.10401E-04   -0.13720E-04  2660   0.148E-02    0.208E-02
DAV:  10    -0.366940185116E+04   -0.10224E-04   -0.40414E-05  2500   0.703E-03    0.113E-02
DAV:  11    -0.366940185988E+04   -0.87217E-05   -0.10658E-05  1724   0.423E-03
  36 F= -.37159128E+04 E0= -.37158311E+04  d E =-.103284E+00
       N       E                     dE             d eps       ncg     rms          rms(c)
DAV:   1    -0.366942434297E+04   -0.22492E-01   -0.14733E+01  2354   0.384E+00    0.830E-01
DAV:   2    -0.366945067122E+04   -0.26328E-01   -0.36413E-01  2764   0.523E-01    0.562E-01
DAV:   3    -0.366945049541E+04    0.17581E-03   -0.20639E-02  2836   0.187E-01    0.565E-01
DAV:   4    -0.366945422769E+04   -0.37323E-02   -0.16295E-01  2956   0.241E-01    0.756E-01
DAV:   5    -0.366944891534E+04    0.53123E-02   -0.93246E-02  2972   0.226E-01    0.336E-01
DAV:   6    -0.366944680614E+04    0.21092E-02   -0.82788E-03  2716   0.183E-01    0.141E-01
DAV:   7    -0.366944845670E+04   -0.16506E-02   -0.10226E-02  2820   0.930E-02    0.289E-01
DAV:   8    -0.366944684345E+04    0.16132E-02   -0.53967E-03  2676   0.749E-02    0.660E-02
DAV:   9    -0.366944700872E+04   -0.16527E-03   -0.31077E-04  2612   0.203E-02    0.397E-02
DAV:  10    -0.366944700310E+04    0.56238E-05   -0.90682E-05  2740   0.120E-02
  37 F= -.37159567E+04 E0= -.37158749E+04  d E =-.439431E-01
       N       E                     dE             d eps       ncg     rms          rms(c)
DAV:   1    -0.366944765739E+04   -0.64867E-03   -0.32257E-01  2354   0.568E-01    0.123E-01
DAV:   2    -0.366944822253E+04   -0.56513E-03   -0.79829E-03  2756   0.766E-02    0.832E-02
DAV:   3    -0.366944818969E+04    0.32833E-04   -0.52354E-04  2836   0.218E-02    0.740E-02
DAV:   4    -0.366944837102E+04   -0.18133E-03   -0.16173E-03  2980   0.327E-02    0.134E-01
DAV:   5    -0.366944814319E+04    0.22783E-03   -0.51439E-04  2676   0.297E-02    0.542E-02
DAV:   6    -0.366944816131E+04   -0.18119E-04   -0.27040E-04  2660   0.204E-02    0.389E-02
DAV:   7    -0.366944814604E+04    0.15272E-04   -0.67259E-05  2236   0.105E-02    0.966E-03
DAV:   8    -0.366944814820E+04   -0.21554E-05   -0.10847E-05  1708   0.396E-03
  38 F= -.37159581E+04 E0= -.37158763E+04  d E =-.452748E-01
       N       E                     dE             d eps       ncg     rms          rms(c)
DAV:   1    -0.366948905196E+04   -0.40906E-01   -0.99283E+00  2354   0.317E+00    0.609E-01
DAV:   2    -0.366950934700E+04   -0.20295E-01   -0.22963E-01  2628   0.432E-01    0.516E-01
DAV:   3    -0.366952029355E+04   -0.10947E-01   -0.19630E-01  2900   0.286E-01    0.918E-01
DAV:   4    -0.366950458002E+04    0.15714E-01   -0.12505E-01  2820   0.221E-01    0.294E-01
DAV:   5    -0.366951183094E+04   -0.72509E-02   -0.56207E-02  3132   0.159E-01    0.630E-01
DAV:   6    -0.366950530371E+04    0.65272E-02   -0.43335E-02  2772   0.133E-01    0.106E-01
DAV:   7    -0.366950631800E+04   -0.10143E-02   -0.13740E-03  2628   0.661E-02    0.887E-02
DAV:   8    -0.366950622359E+04    0.94415E-04   -0.41685E-04  2492   0.483E-02    0.437E-02
DAV:   9    -0.366950619919E+04    0.24396E-04   -0.18437E-04  2788   0.242E-02    0.239E-02
DAV:  10    -0.366950620609E+04   -0.68985E-05   -0.89368E-05  2564   0.975E-03
  39 F= -.37160158E+04 E0= -.37159341E+04  d E =-.577456E-01
       N       E                     dE             d eps       ncg     rms          rms(c)
DAV:   1    -0.366950973341E+04   -0.35342E-02   -0.57271E+00  2354   0.241E+00    0.464E-01
DAV:   2    -0.366952138714E+04   -0.11654E-01   -0.13251E-01  2644   0.327E-01    0.388E-01
DAV:   3    -0.366952795873E+04   -0.65716E-02   -0.11211E-01  2900   0.216E-01    0.716E-01
DAV:   4    -0.366951860267E+04    0.93561E-02   -0.78721E-02  2804   0.170E-01    0.220E-01
DAV:   5    -0.366952293466E+04   -0.43320E-02   -0.28837E-02  3124   0.126E-01    0.471E-01
DAV:   6    -0.366951925664E+04    0.36780E-02   -0.24284E-02  2804   0.103E-01    0.997E-02
DAV:   7    -0.366951974952E+04   -0.49288E-03   -0.86093E-04  2668   0.589E-02    0.664E-02
DAV:   8    -0.366951969836E+04    0.51161E-04   -0.30204E-04  2492   0.365E-02    0.317E-02
DAV:   9    -0.366951969026E+04    0.81015E-05   -0.11476E-04  2740   0.181E-02    0.177E-02
DAV:  10    -0.366951969483E+04   -0.45754E-05   -0.48154E-05  2540   0.749E-03
  40 F= -.37160290E+04 E0= -.37159473E+04  d E =-.709688E-01
       N       E                     dE             d eps       ncg     rms          rms(c)
DAV:   1    -0.366954840434E+04   -0.28714E-01   -0.51717E+00  2362   0.228E+00    0.428E-01
DAV:   2    -0.366955836208E+04   -0.99577E-02   -0.11904E-01  2612   0.300E-01    0.279E-01
DAV:   3    -0.366955901163E+04   -0.64955E-03   -0.33402E-03  2820   0.112E-01    0.312E-01
DAV:   4    -0.366955886812E+04    0.14351E-03   -0.40328E-03  2828   0.120E-01    0.329E-01
DAV:   5    -0.366955926777E+04   -0.39965E-03   -0.52982E-03  2956   0.137E-01    0.300E-01
DAV:   6    -0.366955753807E+04    0.17297E-02   -0.39519E-03  2652   0.122E-01    0.707E-02
DAV:   7    -0.366955790309E+04   -0.36502E-03   -0.23736E-03  2612   0.381E-02    0.983E-02
DAV:   8    -0.366955772589E+04    0.17719E-03   -0.76851E-04  2484   0.267E-02    0.332E-02
DAV:   9    -0.366955773730E+04   -0.11410E-04   -0.79869E-05  2556   0.944E-03    0.206E-02
DAV:  10    -0.366955773658E+04    0.72428E-06   -0.24443E-05  1868   0.783E-03
  41 F= -.37160678E+04 E0= -.37159861E+04  d E =-.387952E-01
       N       E                     dE             d eps       ncg     rms          rms(c)
DAV:   1    -0.366955762607E+04    0.11124E-03   -0.11773E+01  2362   0.345E+00    0.645E-01
DAV:   2    -0.366958037992E+04   -0.22754E-01   -0.27193E-01  2596   0.453E-01    0.420E-01
DAV:   3    -0.366958190477E+04   -0.15249E-02   -0.28112E-02  2836   0.163E-01    0.476E-01
DAV:   4    -0.366958135643E+04    0.54834E-03   -0.45812E-02  2812   0.179E-01    0.489E-01
DAV:   5    -0.366958211021E+04   -0.75377E-03   -0.11353E-02  2932   0.201E-01    0.442E-01
DAV:   6    -0.366957853945E+04    0.35708E-02   -0.69595E-03  2708   0.186E-01    0.969E-02
DAV:   7    -0.366957911935E+04   -0.57990E-03   -0.34236E-03  2532   0.495E-02    0.108E-01
DAV:   8    -0.366957893129E+04    0.18806E-03   -0.10044E-03  2708   0.295E-02    0.545E-02
DAV:   9    -0.366957892255E+04    0.87355E-05   -0.19672E-04  2604   0.145E-02    0.332E-02
DAV:  10    -0.366957891540E+04    0.71531E-05   -0.79431E-05  2556   0.150E-02
  42 F= -.37160901E+04 E0= -.37160084E+04  d E =-.611042E-01
       N       E                     dE             d eps       ncg     rms          rms(c)
DAV:   1    -0.366959906395E+04   -0.20141E-01   -0.66396E+00  2354   0.258E+00    0.501E-01
DAV:   2    -0.366961250489E+04   -0.13441E-01   -0.16006E-01  2620   0.343E-01    0.363E-01
DAV:   3    -0.366961812869E+04   -0.56238E-02   -0.16220E-02  2932   0.180E-01    0.690E-01
DAV:   4    -0.366961029389E+04    0.78348E-02   -0.10925E-02  2764   0.164E-01    0.240E-01
DAV:   5    -0.366961212993E+04   -0.18360E-02   -0.83540E-03  2716   0.937E-02    0.279E-01
DAV:   6    -0.366961104417E+04    0.10858E-02   -0.11323E-02  2740   0.736E-02    0.104E-01
DAV:   7    -0.366961117181E+04   -0.12765E-03   -0.98123E-04  2676   0.421E-02    0.535E-02
DAV:   8    -0.366961112509E+04    0.46724E-04   -0.18822E-04  2692   0.356E-02    0.318E-02
DAV:   9    -0.366961111709E+04    0.79958E-05   -0.83742E-05  2652   0.175E-02
  43 F= -.37161237E+04 E0= -.37160422E+04  d E =-.335969E-01
       N       E                     dE             d eps       ncg     rms          rms(c)
DAV:   1    -0.366961203260E+04   -0.90751E-03   -0.21339E+00  2354   0.146E+00    0.286E-01
DAV:   2    -0.366961645676E+04   -0.44242E-02   -0.51968E-02  2620   0.196E-01    0.218E-01
DAV:   3    -0.366961866061E+04   -0.22039E-02   -0.78690E-03  3028   0.111E-01    0.433E-01
DAV:   4    -0.366961554547E+04    0.31151E-02   -0.47667E-03  2876   0.969E-02    0.131E-01
DAV:   5    -0.366961665760E+04   -0.11121E-02   -0.43690E-03  2836   0.637E-02    0.224E-01
DAV:   6    -0.366961581931E+04    0.83829E-03   -0.49502E-03  2724   0.515E-02    0.463E-02
DAV:   7    -0.366961596349E+04   -0.14418E-03   -0.21528E-04  2652   0.267E-02    0.340E-02
DAV:   8    -0.366961594172E+04    0.21775E-04   -0.75568E-05  2692   0.213E-02    0.179E-02
DAV:   9    -0.366961594283E+04   -0.11123E-05   -0.29856E-05  2268   0.956E-03
  44 F= -.37161294E+04 E0= -.37160478E+04  d E =-.392217E-01
       N       E                     dE             d eps       ncg     rms          rms(c)
DAV:   1    -0.366963442386E+04   -0.18482E-01   -0.42064E+00  2362   0.206E+00    0.396E-01
DAV:   2    -0.366964307649E+04   -0.86526E-02   -0.10328E-01  2628   0.274E-01    0.280E-01
DAV:   3    -0.366964516910E+04   -0.20926E-02   -0.16813E-02  2972   0.119E-01    0.460E-01
DAV:   4    -0.366964217462E+04    0.29945E-02   -0.12795E-02  2892   0.111E-01    0.213E-01
DAV:   5    -0.366964476007E+04   -0.25854E-02   -0.50037E-03  2964   0.119E-01    0.377E-01
DAV:   6    -0.366964201647E+04    0.27436E-02   -0.81077E-03  2756   0.958E-02    0.809E-02
DAV:   7    -0.366964236860E+04   -0.35213E-03   -0.60762E-04  2668   0.523E-02    0.567E-02
DAV:   8    -0.366964231256E+04    0.56032E-04   -0.26196E-04  2500   0.314E-02    0.230E-02
DAV:   9    -0.366964231331E+04   -0.74977E-06   -0.69803E-05  2724   0.120E-02
  45 F= -.37161570E+04 E0= -.37160753E+04  d E =-.276221E-01
       N       E                     dE             d eps       ncg     rms          rms(c)
DAV:   1    -0.366964319402E+04   -0.88145E-03   -0.38531E+00  2354   0.197E+00    0.380E-01
DAV:   2    -0.366965113347E+04   -0.79395E-02   -0.94743E-02  2612   0.262E-01    0.265E-01
DAV:   3    -0.366965290732E+04   -0.17738E-02   -0.14439E-02  2964   0.111E-01    0.429E-01
DAV:   4    -0.366965037568E+04    0.25316E-02   -0.11641E-02  2884   0.105E-01    0.208E-01
DAV:   5    -0.366965259661E+04   -0.22209E-02   -0.42168E-03  2932   0.113E-01    0.352E-01
DAV:   6    -0.366965020543E+04    0.23912E-02   -0.72559E-03  2764   0.906E-02    0.777E-02
DAV:   7    -0.366965051091E+04   -0.30548E-03   -0.55007E-04  2644   0.487E-02    0.530E-02
DAV:   8    -0.366965046193E+04    0.48983E-04   -0.22841E-04  2476   0.296E-02    0.219E-02
DAV:   9    -0.366965046336E+04   -0.14319E-05   -0.62498E-05  2684   0.115E-02
  46 F= -.37161664E+04 E0= -.37160847E+04  d E =-.369850E-01
       N       E                     dE             d eps       ncg     rms          rms(c)
DAV:   1    -0.366966332058E+04   -0.12859E-01   -0.14740E+00  2354   0.121E+00    0.232E-01
DAV:   2    -0.366966680563E+04   -0.34851E-02   -0.35073E-02  2636   0.169E-01    0.236E-01
DAV:   3    -0.366966805552E+04   -0.12499E-02   -0.56512E-03  2876   0.119E-01    0.347E-01
DAV:   4    -0.366966589932E+04    0.21562E-02   -0.25559E-03  2692   0.836E-02    0.128E-01
DAV:   5    -0.366966639650E+04   -0.49718E-03   -0.52292E-03  2884   0.487E-02    0.179E-01
DAV:   6    -0.366966600743E+04    0.38907E-03   -0.29621E-03  2636   0.403E-02    0.338E-02
DAV:   7    -0.366966608997E+04   -0.82539E-04   -0.17553E-04  2564   0.246E-02    0.275E-02
DAV:   8    -0.366966607489E+04    0.15080E-04   -0.39537E-05  2420   0.153E-02    0.146E-02
DAV:   9    -0.366966607593E+04   -0.10480E-05   -0.20401E-05  1940   0.629E-03
  47 F= -.37161829E+04 E0= -.37161013E+04  d E =-.165316E-01
       N       E                     dE             d eps       ncg     rms          rms(c)
DAV:   1    -0.366966278242E+04    0.32925E-02   -0.13260E+01  2354   0.363E+00    0.694E-01
DAV:   2    -0.366969431216E+04   -0.31530E-01   -0.31793E-01  2628   0.507E-01    0.721E-01
DAV:   3    -0.366970445206E+04   -0.10140E-01   -0.26511E-01  2852   0.361E-01    0.951E-01
DAV:   4    -0.366968651740E+04    0.17935E-01   -0.11766E-01  2732   0.245E-01    0.374E-01
DAV:   5    -0.366969011360E+04   -0.35962E-02   -0.49003E-02  2852   0.143E-01    0.525E-01
DAV:   6    -0.366968811562E+04    0.19980E-02   -0.32981E-02  2740   0.150E-01    0.243E-01
DAV:   7    -0.366968751618E+04    0.59943E-03   -0.24000E-03  2540   0.117E-01    0.112E-01
DAV:   8    -0.366968742974E+04    0.86448E-04   -0.64687E-04  2596   0.363E-02    0.479E-02
DAV:   9    -0.366968744742E+04   -0.17684E-04   -0.29012E-04  2708   0.209E-02    0.311E-02
DAV:  10    -0.366968745097E+04   -0.35500E-05   -0.59122E-05  2644   0.888E-03
  48 F= -.37162070E+04 E0= -.37161254E+04  d E =-.406937E-01
       N       E                     dE             d eps       ncg     rms          rms(c)
DAV:   1    -0.366970109062E+04   -0.13643E-01   -0.37080E+00  2354   0.191E+00    0.381E-01
DAV:   2    -0.366970828623E+04   -0.71956E-02   -0.88490E-02  2700   0.255E-01    0.251E-01
DAV:   3    -0.366970961744E+04   -0.13312E-02   -0.68486E-03  2868   0.109E-01    0.357E-01
DAV:   4    -0.366970792213E+04    0.16953E-02   -0.66926E-03  2812   0.108E-01    0.225E-01
DAV:   5    -0.366970891455E+04   -0.99242E-03   -0.88931E-03  2892   0.981E-02    0.298E-01
DAV:   6    -0.366970766118E+04    0.12534E-02   -0.11571E-02  2780   0.754E-02    0.110E-01
DAV:   7    -0.366970777661E+04   -0.11543E-03   -0.15230E-03  2716   0.528E-02    0.570E-02
DAV:   8    -0.366970771713E+04    0.59476E-04   -0.30604E-04  2516   0.289E-02    0.219E-02
DAV:   9    -0.366970772154E+04   -0.44043E-05   -0.81404E-05  2660   0.959E-03
  49 F= -.37162287E+04 E0= -.37161470E+04  d E =-.216342E-01
       N       E                     dE             d eps       ncg     rms          rms(c)
DAV:   1    -0.366970753136E+04    0.18577E-03   -0.31054E+00  2354   0.175E+00    0.348E-01
DAV:   2    -0.366971356070E+04   -0.60293E-02   -0.74216E-02  2684   0.233E-01    0.228E-01
DAV:   3    -0.366971438954E+04   -0.82884E-03   -0.29046E-03  2868   0.927E-02    0.300E-01
DAV:   4    -0.366971342197E+04    0.96757E-03   -0.21974E-03  2804   0.967E-02    0.218E-01
DAV:   5    -0.366971408227E+04   -0.66030E-03   -0.70855E-03  2892   0.900E-02    0.273E-01
DAV:   6    -0.366971304972E+04    0.10326E-02   -0.96297E-03  2788   0.677E-02    0.995E-02
DAV:   7    -0.366971315503E+04   -0.10531E-03   -0.12300E-03  2716   0.479E-02    0.517E-02
DAV:   8    -0.366971310374E+04    0.51291E-04   -0.24528E-04  2500   0.267E-02    0.200E-02
DAV:   9    -0.366971310708E+04   -0.33338E-05   -0.67635E-05  2652   0.888E-03
  50 F= -.37162353E+04 E0= -.37161537E+04  d E =-.282645E-01
       N       E                     dE             d eps       ncg     rms          rms(c)
DAV:   1    -0.366972190721E+04   -0.88035E-02   -0.10130E+00  2354   0.998E-01    0.194E-01
DAV:   2    -0.366972387736E+04   -0.19701E-02   -0.23793E-02  2652   0.131E-01    0.125E-01
DAV:   3    -0.366972411027E+04   -0.23292E-03   -0.21420E-03  2892   0.462E-02    0.171E-01
DAV:   4    -0.366972384197E+04    0.26830E-03   -0.25346E-03  2844   0.488E-02    0.122E-01
DAV:   5    -0.366972400988E+04   -0.16792E-03   -0.42900E-04  2796   0.482E-02    0.122E-01
DAV:   6    -0.366972377315E+04    0.23673E-03   -0.10935E-03  2740   0.376E-02    0.501E-02
DAV:   7    -0.366972378663E+04   -0.13474E-04   -0.26404E-04  2644   0.244E-02    0.279E-02
DAV:   8    -0.366972377342E+04    0.13203E-04   -0.67192E-05  2500   0.139E-02    0.108E-02
DAV:   9    -0.366972377493E+04   -0.15087E-05   -0.16476E-05  1956   0.483E-03
  51 F= -.37162466E+04 E0= -.37161649E+04  d E =-.112849E-01
       N       E                     dE             d eps       ncg     rms          rms(c)
DAV:   1    -0.366972159866E+04    0.21748E-02   -0.91146E+00  2354   0.299E+00    0.579E-01
DAV:   2    -0.366973943054E+04   -0.17832E-01   -0.21461E-01  2636   0.395E-01    0.382E-01
DAV:   3    -0.366974303769E+04   -0.36072E-02   -0.19113E-02  2900   0.163E-01    0.592E-01
DAV:   4    -0.366973832200E+04    0.47157E-02   -0.15824E-02  2844   0.161E-01    0.318E-01
DAV:   5    -0.366974028747E+04   -0.19655E-02   -0.66460E-03  2860   0.140E-01    0.363E-01
DAV:   6    -0.366973821890E+04    0.20686E-02   -0.14497E-02  2772   0.113E-01    0.145E-01
DAV:   7    -0.366973841337E+04   -0.19447E-03   -0.27817E-03  2684   0.678E-02    0.855E-02
DAV:   8    -0.366973825240E+04    0.16097E-03   -0.62401E-04  2516   0.426E-02    0.322E-02
DAV:   9    -0.366973825938E+04   -0.69819E-05   -0.17387E-04  2668   0.142E-02    0.205E-02
DAV:  10    -0.366973825965E+04   -0.26682E-06   -0.28379E-05  2084   0.692E-03
  52 F= -.37162629E+04 E0= -.37161813E+04  d E =-.275994E-01
       N       E                     dE             d eps       ncg     rms          rms(c)
DAV:   1    -0.366973800642E+04    0.25296E-03   -0.12848E-01  2370   0.355E-01    0.700E-02
DAV:   2    -0.366973826747E+04   -0.26105E-03   -0.30420E-03  2652   0.477E-02    0.475E-02
DAV:   3    -0.366973837918E+04   -0.11170E-03   -0.18319E-04  2836   0.265E-02    0.903E-02
DAV:   4    -0.366973823587E+04    0.14331E-03   -0.11638E-04  2100   0.231E-02    0.334E-02
DAV:   5    -0.366973831789E+04   -0.82018E-04   -0.42673E-04  2228   0.190E-02    0.646E-02
DAV:   6    -0.366973824701E+04    0.70879E-04   -0.42036E-04  2452   0.147E-02    0.155E-02
DAV:   7    -0.366973825663E+04   -0.96247E-05   -0.21610E-05  1748   0.875E-03
  53 F= -.37162631E+04 E0= -.37161816E+04  d E =-.278103E-01
       N       E                     dE             d eps       ncg     rms          rms(c)
DAV:   1    -0.366974550117E+04   -0.72542E-02   -0.41807E-01  2354   0.646E-01    0.126E-01
DAV:   2    -0.366974642525E+04   -0.92408E-03   -0.10364E-02  2660   0.893E-02    0.121E-01
DAV:   3    -0.366974684098E+04   -0.41573E-03   -0.41879E-03  3036   0.569E-02    0.206E-01
DAV:   4    -0.366974617799E+04    0.66300E-03   -0.15148E-03  2804   0.426E-02    0.589E-02
DAV:   5    -0.366974645795E+04   -0.27996E-03   -0.82975E-04  2940   0.355E-02    0.112E-01
DAV:   6    -0.366974625044E+04    0.20751E-03   -0.69779E-04  2676   0.278E-02    0.304E-02
DAV:   7    -0.366974626381E+04   -0.13366E-04   -0.65733E-05  2564   0.179E-02    0.148E-02
DAV:   8    -0.366974626344E+04    0.36421E-06   -0.27960E-05  1996   0.780E-03
  54 F= -.37162715E+04 E0= -.37161898E+04  d E =-.838411E-02
       N       E                     dE             d eps       ncg     rms          rms(c)
DAV:   1    -0.366975322214E+04   -0.69583E-02   -0.37656E+00  2354   0.194E+00    0.376E-01
DAV:   2    -0.366976161921E+04   -0.83971E-02   -0.94389E-02  2660   0.268E-01    0.372E-01
DAV:   3    -0.366976492737E+04   -0.33082E-02   -0.38587E-02  3012   0.170E-01    0.584E-01
DAV:   4    -0.366975956515E+04    0.53622E-02   -0.10275E-02  2900   0.125E-01    0.190E-01
DAV:   5    -0.366976139704E+04   -0.18319E-02   -0.79072E-03  3060   0.974E-02    0.308E-01
DAV:   6    -0.366975987910E+04    0.15179E-02   -0.44529E-03  2628   0.752E-02    0.726E-02
DAV:   7    -0.366976005486E+04   -0.17576E-03   -0.50917E-04  2572   0.429E-02    0.492E-02
DAV:   8    -0.366976003084E+04    0.24015E-04   -0.21174E-04  2516   0.251E-02    0.226E-02
DAV:   9    -0.366976003084E+04    0.69849E-09   -0.65283E-05  2628   0.119E-02
  55 F= -.37162864E+04 E0= -.37162045E+04  d E =-.232714E-01
       N       E                     dE             d eps       ncg     rms          rms(c)
DAV:   1    -0.366975975272E+04    0.27813E-03   -0.78974E-01  2354   0.889E-01    0.174E-01
DAV:   2    -0.366976158718E+04   -0.18345E-02   -0.20003E-02  2652   0.124E-01    0.184E-01
DAV:   3    -0.366976221708E+04   -0.62990E-03   -0.84751E-03  2972   0.802E-02    0.276E-01
DAV:   4    -0.366976106707E+04    0.11500E-02   -0.23310E-03  2804   0.576E-02    0.846E-02
DAV:   5    -0.366976151049E+04   -0.44342E-03   -0.17347E-03  3052   0.451E-02    0.147E-01
DAV:   6    -0.366976115203E+04    0.35846E-03   -0.10938E-03  2636   0.352E-02    0.286E-02
DAV:   7    -0.366976120252E+04   -0.50489E-04   -0.10762E-04  2596   0.181E-02    0.210E-02
DAV:   8    -0.366976119723E+04    0.52825E-05   -0.33874E-05  2044   0.114E-02
  56 F= -.37162881E+04 E0= -.37162062E+04  d E =-.249440E-01
       N       E                     dE             d eps       ncg     rms          rms(c)
DAV:   1    -0.366976956831E+04   -0.83658E-02   -0.13848E+00  2354   0.118E+00    0.246E-01
DAV:   2    -0.366977229645E+04   -0.27281E-02   -0.33872E-02  2724   0.160E-01    0.182E-01
DAV:   3    -0.366977368828E+04   -0.13918E-02   -0.53511E-03  2980   0.928E-02    0.348E-01
DAV:   4    -0.366977170266E+04    0.19856E-02   -0.36137E-03  2828   0.807E-02    0.119E-01
DAV:   5    -0.366977237602E+04   -0.67336E-03   -0.13469E-03  2884   0.706E-02    0.144E-01
DAV:   6    -0.366977199566E+04    0.38036E-03   -0.31400E-03  2732   0.566E-02    0.899E-02
DAV:   7    -0.366977193160E+04    0.64059E-04   -0.79215E-04  2700   0.323E-02    0.354E-02
DAV:   8    -0.366977192705E+04    0.45489E-05   -0.14205E-04  2452   0.163E-02    0.140E-02
DAV:   9    -0.366977192642E+04    0.63464E-06   -0.27649E-05  2172   0.657E-03
  57 F= -.37162993E+04 E0= -.37162174E+04  d E =-.112395E-01
       N       E                     dE             d eps       ncg     rms          rms(c)
DAV:   1    -0.366977308641E+04   -0.11594E-02   -0.11571E+00  2354   0.108E+00    0.225E-01
DAV:   2    -0.366977539108E+04   -0.23047E-02   -0.28164E-02  2716   0.147E-01    0.172E-01
DAV:   3    -0.366977678288E+04   -0.13918E-02   -0.37918E-03  2996   0.912E-02    0.341E-01
DAV:   4    -0.366977479765E+04    0.19852E-02   -0.25724E-03  2772   0.776E-02    0.103E-01
DAV:   5    -0.366977518183E+04   -0.38417E-03   -0.57212E-04  2644   0.518E-02    0.699E-02
DAV:   6    -0.366977507824E+04    0.10358E-03   -0.53824E-04  2612   0.499E-02    0.460E-02
DAV:   7    -0.366977510207E+04   -0.23831E-04   -0.74445E-04  2780   0.214E-02    0.604E-02
DAV:   8    -0.366977504409E+04    0.57982E-04   -0.31082E-04  2108   0.140E-02    0.135E-02
DAV:   9    -0.366977505092E+04   -0.68241E-05   -0.25216E-05  1932   0.642E-03
  58 F= -.37163029E+04 E0= -.37162210E+04  d E =-.148271E-01
       N       E                     dE             d eps       ncg     rms          rms(c)
DAV:   1    -0.366978286043E+04   -0.78163E-02   -0.65641E-01  2354   0.811E-01    0.158E-01
DAV:   2    -0.366978410926E+04   -0.12488E-02   -0.14965E-02  2660   0.107E-01    0.111E-01
DAV:   3    -0.366978466196E+04   -0.55269E-03   -0.89459E-04  2908   0.576E-02    0.210E-01
DAV:   4    -0.366978391015E+04    0.75180E-03   -0.73436E-04  2796   0.519E-02    0.757E-02
DAV:   5    -0.366978425765E+04   -0.34749E-03   -0.20752E-03  2868   0.339E-02    0.136E-01
DAV:   6    -0.366978394810E+04    0.30955E-03   -0.17662E-03  2772   0.285E-02    0.231E-02
DAV:   7    -0.366978400076E+04   -0.52655E-04   -0.57588E-05  2316   0.129E-02    0.167E-02
DAV:   8    -0.366978399681E+04    0.39478E-05   -0.19331E-05  1740   0.104E-02
  59 F= -.37163121E+04 E0= -.37162304E+04  d E =-.916835E-02
       N       E                     dE             d eps       ncg     rms          rms(c)
DAV:   1    -0.366978786890E+04   -0.38681E-02   -0.59101E+00  2354   0.243E+00    0.475E-01
DAV:   2    -0.366979909579E+04   -0.11227E-01   -0.13526E-01  2636   0.321E-01    0.325E-01
DAV:   3    -0.366980296487E+04   -0.38691E-02   -0.76368E-03  2900   0.158E-01    0.575E-01
DAV:   4    -0.366979765305E+04    0.53118E-02   -0.64396E-03  2812   0.148E-01    0.240E-01
DAV:   5    -0.366980024029E+04   -0.25872E-02   -0.15658E-02  2884   0.102E-01    0.387E-01
DAV:   6    -0.366979777466E+04    0.24656E-02   -0.13672E-02  2788   0.840E-02    0.778E-02
DAV:   7    -0.366979816314E+04   -0.38848E-03   -0.69324E-04  2588   0.485E-02    0.597E-02
DAV:   8    -0.366979809208E+04    0.71065E-04   -0.26031E-04  2548   0.336E-02    0.257E-02
DAV:   9    -0.366979809489E+04   -0.28172E-05   -0.11081E-04  2748   0.141E-02    0.165E-02
DAV:  10    -0.366979809468E+04    0.20856E-06   -0.25467E-05  1780   0.700E-03
  60 F= -.37163268E+04 E0= -.37162453E+04  d E =-.239291E-01
       N       E                     dE             d eps       ncg     rms          rms(c)
DAV:   1    -0.366979787870E+04    0.21619E-03   -0.42262E-01  2354   0.652E-01    0.128E-01
DAV:   2    -0.366979868686E+04   -0.80817E-03   -0.96613E-03  2644   0.863E-02    0.891E-02
DAV:   3    -0.366979905267E+04   -0.36581E-03   -0.58040E-04  2940   0.472E-02    0.169E-01
DAV:   4    -0.366979856000E+04    0.49267E-03   -0.43407E-04  2756   0.421E-02    0.613E-02
DAV:   5    -0.366979881898E+04   -0.25898E-03   -0.15817E-03  2964   0.294E-02    0.121E-01
DAV:   6    -0.366979857796E+04    0.24102E-03   -0.13768E-03  2756   0.251E-02    0.203E-02
DAV:   7    -0.366979861964E+04   -0.41685E-04   -0.45907E-05  2140   0.134E-02    0.153E-02
DAV:   8    -0.366979861555E+04    0.40947E-05   -0.16137E-05  1636   0.870E-03
  61 F= -.37163275E+04 E0= -.37162460E+04  d E =-.246259E-01
       N       E                     dE             d eps       ncg     rms          rms(c)
DAV:   1    -0.366980668776E+04   -0.80681E-02   -0.11774E+00  2354   0.109E+00    0.209E-01
DAV:   2    -0.366980884431E+04   -0.21566E-02   -0.26224E-02  2588   0.142E-01    0.136E-01
DAV:   3    -0.366980887348E+04   -0.29173E-04   -0.14307E-03  2780   0.468E-02    0.133E-01
DAV:   4    -0.366980908053E+04   -0.20705E-03   -0.35710E-03  2940   0.550E-02    0.184E-01
DAV:   5    -0.366980895966E+04    0.12087E-03   -0.15574E-03  3004   0.620E-02    0.126E-01
DAV:   6    -0.366980872069E+04    0.23898E-03   -0.55143E-04  2660   0.485E-02    0.579E-02
DAV:   7    -0.366980871822E+04    0.24643E-05   -0.38709E-04  2684   0.230E-02    0.318E-02
DAV:   8    -0.366980870515E+04    0.13075E-04   -0.84792E-05  2372   0.126E-02    0.129E-02
DAV:   9    -0.366980870568E+04   -0.53149E-06   -0.24862E-05  2044   0.539E-03
  62 F= -.37163379E+04 E0= -.37162564E+04  d E =-.103835E-01
       N       E                     dE             d eps       ncg     rms          rms(c)
DAV:   1    -0.366980464611E+04    0.40590E-02   -0.10590E+01  2354   0.326E+00    0.629E-01
DAV:   2    -0.366982411514E+04   -0.19469E-01   -0.23665E-01  2596   0.426E-01    0.409E-01
DAV:   3    -0.366982435040E+04   -0.23526E-03   -0.14779E-02  2820   0.140E-01    0.399E-01
DAV:   4    -0.366982579845E+04   -0.14480E-02   -0.56950E-02  2996   0.155E-01    0.540E-01
DAV:   5    -0.366982537346E+04    0.42499E-03   -0.42602E-02  3044   0.186E-01    0.414E-01
DAV:   6    -0.366982298061E+04    0.23928E-02   -0.46396E-03  2716   0.151E-01    0.194E-01
DAV:   7    -0.366982293240E+04    0.48216E-04   -0.31523E-03  2700   0.738E-02    0.960E-02
DAV:   8    -0.366982278107E+04    0.15132E-03   -0.61496E-04  2460   0.431E-02    0.406E-02
DAV:   9    -0.366982278420E+04   -0.31262E-05   -0.26738E-04  2676   0.171E-02    0.229E-02
DAV:  10    -0.366982278142E+04    0.27795E-05   -0.33201E-05  1980   0.924E-03
  63 F= -.37163529E+04 E0= -.37162716E+04  d E =-.253306E-01
       N       E                     dE             d eps       ncg     rms          rms(c)
DAV:   1    -0.366983057487E+04   -0.77907E-02   -0.23503E+00  2354   0.154E+00    0.320E-01
DAV:   2    -0.366983502941E+04   -0.44545E-02   -0.56799E-02  2620   0.204E-01    0.223E-01
DAV:   3    -0.366983508977E+04   -0.60359E-04   -0.62344E-03  2900   0.664E-02    0.236E-01
DAV:   4    -0.366983504390E+04    0.45874E-04   -0.13734E-02  2956   0.769E-02    0.244E-01
DAV:   5    -0.366983468750E+04    0.35640E-03   -0.56227E-03  2708   0.607E-02    0.147E-01
DAV:   6    -0.366983453986E+04    0.14764E-03   -0.84628E-04  2612   0.521E-02    0.926E-02
DAV:   7    -0.366983446220E+04    0.77659E-04   -0.24450E-04  2452   0.241E-02    0.223E-02
DAV:   8    -0.366983447583E+04   -0.13623E-04   -0.80086E-05  2724   0.131E-02    0.179E-02
DAV:   9    -0.366983447420E+04    0.16300E-05   -0.18421E-05  1796   0.109E-02
  64 F= -.37163647E+04 E0= -.37162837E+04  d E =-.118316E-01
       N       E                     dE             d eps       ncg     rms          rms(c)
DAV:   1    -0.366983493499E+04   -0.45917E-03   -0.34314E-01  2354   0.589E-01    0.123E-01
DAV:   2    -0.366983560415E+04   -0.66915E-03   -0.83676E-03  2612   0.785E-02    0.899E-02
DAV:   3    -0.366983574914E+04   -0.14500E-03   -0.22004E-03  3004   0.354E-02    0.136E-01
DAV:   4    -0.366983550407E+04    0.24507E-03   -0.21298E-03  2892   0.321E-02    0.680E-02
DAV:   5    -0.366983579370E+04   -0.28963E-03   -0.33063E-04  2860   0.360E-02    0.127E-01
DAV:   6    -0.366983547209E+04    0.32161E-03   -0.31434E-04  2732   0.317E-02    0.219E-02
DAV:   7    -0.366983551815E+04   -0.46059E-04   -0.50507E-05  2572   0.107E-02    0.135E-02
DAV:   8    -0.366983551635E+04    0.18019E-05   -0.15404E-05  1676   0.810E-03
  65 F= -.37163658E+04 E0= -.37162847E+04  d E =-.129246E-01
       N       E                     dE             d eps       ncg     rms          rms(c)
DAV:   1    -0.366984392118E+04   -0.84030E-02   -0.13451E+00  2354   0.116E+00    0.226E-01
DAV:   2    -0.366984641354E+04   -0.24924E-02   -0.30342E-02  2588   0.151E-01    0.154E-01
DAV:   3    -0.366984681883E+04   -0.40530E-03   -0.57793E-03  2940   0.613E-02    0.220E-01
DAV:   4    -0.366984619300E+04    0.62583E-03   -0.64691E-03  2924   0.558E-02    0.121E-01
DAV:   5    -0.366984679165E+04   -0.59865E-03   -0.13173E-03  2860   0.572E-02    0.180E-01
DAV:   6    -0.366984616818E+04    0.62347E-03   -0.71527E-04  2668   0.508E-02    0.556E-02
DAV:   7    -0.366984621417E+04   -0.45984E-04   -0.11890E-04  2644   0.242E-02    0.236E-02
DAV:   8    -0.366984620990E+04    0.42700E-05   -0.61649E-05  2468   0.127E-02
  66 F= -.37163764E+04 E0= -.37162954E+04  d E =-.106605E-01
       N       E                     dE             d eps       ncg     rms          rms(c)
DAV:   1    -0.366984074631E+04    0.54679E-02   -0.12103E+01  2354   0.349E+00    0.680E-01
DAV:   2    -0.366986329446E+04   -0.22548E-01   -0.27454E-01  2588   0.455E-01    0.461E-01
DAV:   3    -0.366986666253E+04   -0.33681E-02   -0.45765E-02  2924   0.179E-01    0.631E-01
DAV:   4    -0.366986154617E+04    0.51164E-02   -0.50689E-02  2924   0.168E-01    0.371E-01
DAV:   5    -0.366986707740E+04   -0.55312E-02   -0.12380E-02  2836   0.174E-01    0.576E-01
DAV:   6    -0.366986074643E+04    0.63310E-02   -0.79513E-03  2652   0.150E-01    0.136E-01
DAV:   7    -0.366986146460E+04   -0.71817E-03   -0.10692E-03  2668   0.645E-02    0.706E-02
DAV:   8    -0.366986141725E+04    0.47352E-04   -0.52025E-04  2500   0.388E-02    0.373E-02
DAV:   9    -0.366986140971E+04    0.75385E-05   -0.18144E-04  2708   0.224E-02    0.230E-02
DAV:  10    -0.366986141001E+04   -0.29150E-06   -0.52467E-05  2588   0.131E-02
  67 F= -.37163915E+04 E0= -.37163108E+04  d E =-.257353E-01
       N       E                     dE             d eps       ncg     rms          rms(c)
DAV:   1    -0.366987021354E+04   -0.88038E-02   -0.14013E+00  2354   0.119E+00    0.238E-01
DAV:   2    -0.366987278036E+04   -0.25668E-02   -0.32543E-02  2628   0.158E-01    0.156E-01
DAV:   3    -0.366987268666E+04    0.93702E-04   -0.18526E-03  2844   0.408E-02    0.132E-01
DAV:   4    -0.366987322327E+04   -0.53661E-03   -0.83684E-03  3156   0.580E-02    0.233E-01
DAV:   5    -0.366987251112E+04    0.71215E-03   -0.51319E-03  2828   0.498E-02    0.814E-02
DAV:   6    -0.366987264160E+04   -0.13048E-03   -0.40988E-04  2740   0.358E-02    0.813E-02
DAV:   7    -0.366987254653E+04    0.95067E-04   -0.14625E-04  2460   0.217E-02    0.210E-02
DAV:   8    -0.366987255912E+04   -0.12587E-04   -0.39223E-05  2388   0.138E-02    0.164E-02
DAV:   9    -0.366987255632E+04    0.28015E-05   -0.21424E-05  1980   0.980E-03
  68 F= -.37164026E+04 E0= -.37163218E+04  d E =-.110682E-01
       N       E                     dE             d eps       ncg     rms          rms(c)
DAV:   1    -0.366987490266E+04   -0.23435E-02   -0.15486E+00  2354   0.125E+00    0.250E-01
DAV:   2    -0.366987778047E+04   -0.28778E-02   -0.36248E-02  2636   0.167E-01    0.171E-01
DAV:   3    -0.366987806762E+04   -0.28715E-03   -0.55706E-03  2876   0.610E-02    0.218E-01
DAV:   4    -0.366987757250E+04    0.49512E-03   -0.76277E-03  2876   0.592E-02    0.147E-01
DAV:   5    -0.366987774279E+04   -0.17029E-03   -0.21149E-03  2700   0.452E-02    0.131E-01
DAV:   6    -0.366987749482E+04    0.24797E-03   -0.56915E-04  2628   0.417E-02    0.626E-02
DAV:   7    -0.366987748352E+04    0.11300E-04   -0.12129E-04  2532   0.181E-02    0.205E-02
DAV:   8    -0.366987748516E+04   -0.16434E-05   -0.56323E-05  2508   0.106E-02
  69 F= -.37164074E+04 E0= -.37163267E+04  d E =-.159081E-01
       N       E                     dE             d eps       ncg     rms          rms(c)
DAV:   1    -0.366988381403E+04   -0.63305E-02   -0.19489E+00  2354   0.141E+00    0.300E-01
DAV:   2    -0.366988753391E+04   -0.37199E-02   -0.48386E-02  2660   0.192E-01    0.226E-01
DAV:   3    -0.366988850972E+04   -0.97581E-03   -0.86251E-03  2940   0.953E-02    0.324E-01
DAV:   4    -0.366988690441E+04    0.16053E-02   -0.63079E-03  2908   0.896E-02    0.160E-01
DAV:   5    -0.366988849870E+04   -0.15943E-02   -0.65723E-03  3004   0.834E-02    0.345E-01
DAV:   6    -0.366988657029E+04    0.19284E-02   -0.86562E-03  2812   0.712E-02    0.519E-02
DAV:   7    -0.366988689891E+04   -0.32862E-03   -0.37879E-04  2476   0.207E-02    0.247E-02
DAV:   8    -0.366988689562E+04    0.32939E-05   -0.97778E-05  2732   0.126E-02
  70 F= -.37164165E+04 E0= -.37163358E+04  d E =-.905068E-02
       N       E                     dE             d eps       ncg     rms          rms(c)
DAV:   1    -0.366988703924E+04   -0.14033E-03   -0.42416E-02  2354   0.208E-01    0.471E-02
DAV:   2    -0.366988713318E+04   -0.93939E-04   -0.11230E-03  2628   0.299E-02    0.378E-02
DAV:   3    -0.366988715955E+04   -0.26368E-04   -0.38652E-04  2500   0.162E-02    0.579E-02
DAV:   4    -0.366988711872E+04    0.40824E-04   -0.30724E-04  1892   0.137E-02    0.296E-02
DAV:   5    -0.366988713769E+04   -0.18965E-04   -0.31493E-05  1796   0.141E-02    0.356E-02
DAV:   6    -0.366988713096E+04    0.67304E-05   -0.81559E-05  1764   0.127E-02
  71 F= -.37164167E+04 E0= -.37163359E+04  d E =-.923203E-02
       N       E                     dE             d eps       ncg     rms          rms(c)
DAV:   1    -0.366989454303E+04   -0.74053E-02   -0.16682E+00  2354   0.130E+00    0.253E-01
DAV:   2    -0.366989788979E+04   -0.33468E-02   -0.38950E-02  2580   0.174E-01    0.229E-01
DAV:   3    -0.366989888842E+04   -0.99863E-03   -0.13665E-02  2972   0.101E-01    0.326E-01
DAV:   4    -0.366989710177E+04    0.17866E-02   -0.55556E-03  2932   0.775E-02    0.110E-01
DAV:   5    -0.366989869148E+04   -0.15897E-02   -0.48253E-03  3140   0.747E-02    0.314E-01
DAV:   6    -0.366989703306E+04    0.16584E-02   -0.52831E-03  2796   0.658E-02    0.446E-02
DAV:   7    -0.366989730073E+04   -0.26767E-03   -0.29762E-04  2564   0.244E-02    0.268E-02
DAV:   8    -0.366989729637E+04    0.43596E-05   -0.71226E-05  2484   0.140E-02
  72 F= -.37164264E+04 E0= -.37163454E+04  d E =-.970928E-02
       N       E                     dE             d eps       ncg     rms          rms(c)
DAV:   1    -0.366988168738E+04    0.15613E-01   -0.15037E+01  2354   0.390E+00    0.761E-01
DAV:   2    -0.366991237291E+04   -0.30686E-01   -0.35851E-01  2580   0.525E-01    0.702E-01
DAV:   3    -0.366992036224E+04   -0.79893E-02   -0.12858E-01  2964   0.304E-01    0.934E-01
DAV:   4    -0.366990505343E+04    0.15309E-01   -0.39368E-02  2868   0.224E-01    0.309E-01
DAV:   5    -0.366991871973E+04   -0.13666E-01   -0.12973E-01  3084   0.223E-01    0.908E-01
DAV:   6    -0.366990461847E+04    0.14101E-01   -0.12144E-01  2812   0.195E-01    0.133E-01
DAV:   7    -0.366990668914E+04   -0.20707E-02   -0.24047E-03  2564   0.708E-02    0.821E-02
DAV:   8    -0.366990663026E+04    0.58874E-04   -0.67497E-04  2548   0.425E-02    0.484E-02
DAV:   9    -0.366990661666E+04    0.13605E-04   -0.24682E-04  2756   0.262E-02    0.285E-02
DAV:  10    -0.366990661354E+04    0.31165E-05   -0.89753E-05  2556   0.147E-02
  73 F= -.37164343E+04 E0= -.37163534E+04  d E =-.176220E-01
       N       E                     dE             d eps       ncg     rms          rms(c)
DAV:   1    -0.366990555988E+04    0.10568E-02   -0.10517E+00  2354   0.103E+00    0.199E-01
DAV:   2    -0.366990761224E+04   -0.20524E-02   -0.24279E-02  2572   0.137E-01    0.175E-01
DAV:   3    -0.366990819920E+04   -0.58696E-03   -0.10143E-02  2956   0.755E-02    0.258E-01
DAV:   4    -0.366990712251E+04    0.10767E-02   -0.56706E-03  2884   0.578E-02    0.824E-02
DAV:   5    -0.366990765804E+04   -0.53554E-03   -0.84532E-04  2796   0.471E-02    0.161E-01
DAV:   6    -0.366990721210E+04    0.44595E-03   -0.10504E-03  2652   0.406E-02    0.448E-02
DAV:   7    -0.366990725916E+04   -0.47064E-04   -0.12811E-04  2548   0.155E-02    0.179E-02
DAV:   8    -0.366990725658E+04    0.25849E-05   -0.45439E-05  2348   0.802E-03
  74 F= -.37164353E+04 E0= -.37163546E+04  d E =-.186418E-01
       N       E                     dE             d eps       ncg     rms          rms(c)
DAV:   1    -0.366991333830E+04   -0.60791E-02   -0.33842E+00  2354   0.186E+00    0.378E-01
DAV:   2    -0.366992100770E+04   -0.76694E-02   -0.77436E-02  2668   0.265E-01    0.400E-01
DAV:   3    -0.366992330925E+04   -0.23015E-02   -0.11422E-02  2852   0.189E-01    0.559E-01
DAV:   4    -0.366991820044E+04    0.51088E-02   -0.55091E-03  2660   0.132E-01    0.208E-01
DAV:   5    -0.366992029150E+04   -0.20911E-02   -0.16833E-02  2996   0.934E-02    0.354E-01
DAV:   6    -0.366991830860E+04    0.19829E-02   -0.93360E-03  2692   0.736E-02    0.445E-02
DAV:   7    -0.366991862655E+04   -0.31795E-03   -0.53601E-04  2572   0.233E-02    0.296E-02
DAV:   8    -0.366991862686E+04   -0.31298E-06   -0.80411E-05  2708   0.121E-02
  75 F= -.37164463E+04 E0= -.37163657E+04  d E =-.110339E-01
       N       E                     dE             d eps       ncg     rms          rms(c)
DAV:   1    -0.366991886355E+04   -0.23700E-03   -0.17588E-01  2354   0.424E-01    0.882E-02
DAV:   2    -0.366991927171E+04   -0.40815E-03   -0.41599E-03  2636   0.617E-02    0.904E-02
DAV:   3    -0.366991939259E+04   -0.12088E-03   -0.67393E-04  2852   0.421E-02    0.123E-01
DAV:   4    -0.366991915676E+04    0.23583E-03   -0.22231E-04  2308   0.321E-02    0.560E-02
DAV:   5    -0.366991921645E+04   -0.59691E-04   -0.74634E-04  2460   0.216E-02    0.709E-02
DAV:   6    -0.366991918369E+04    0.32755E-04   -0.59974E-04  2564   0.224E-02    0.341E-02
DAV:   7    -0.366991916194E+04    0.21752E-04   -0.88029E-05  2316   0.191E-02    0.877E-03
DAV:   8    -0.366991916408E+04   -0.21355E-05   -0.16196E-05  1668   0.518E-03
  76 F= -.37164468E+04 E0= -.37163660E+04  d E =-.114934E-01
       N       E                     dE             d eps       ncg     rms          rms(c)
DAV:   1    -0.366992512290E+04   -0.59610E-02   -0.18101E+00  2354   0.136E+00    0.274E-01
DAV:   2    -0.366992916700E+04   -0.40441E-02   -0.41582E-02  2668   0.192E-01    0.285E-01
DAV:   3    -0.366993047786E+04   -0.13109E-02   -0.52860E-03  2860   0.135E-01    0.406E-01
DAV:   4    -0.366992776599E+04    0.27119E-02   -0.26781E-03  2700   0.957E-02    0.153E-01
DAV:   5    -0.366992893845E+04   -0.11725E-02   -0.95055E-03  3052   0.705E-02    0.267E-01
DAV:   6    -0.366992781656E+04    0.11219E-02   -0.56339E-03  2724   0.555E-02    0.356E-02
DAV:   7    -0.366992801057E+04   -0.19402E-03   -0.26519E-04  2596   0.273E-02    0.312E-02
DAV:   8    -0.366992799562E+04    0.14958E-04   -0.77991E-05  2484   0.191E-02    0.160E-02
DAV:   9    -0.366992799483E+04    0.78540E-06   -0.32056E-05  2236   0.850E-03
  77 F= -.37164554E+04 E0= -.37163747E+04  d E =-.865136E-02
       N       E                     dE             d eps       ncg     rms          rms(c)
DAV:   1    -0.366992851053E+04   -0.51491E-03   -0.48172E-01  2354   0.702E-01    0.142E-01
DAV:   2    -0.366992956535E+04   -0.10548E-02   -0.11091E-02  2652   0.984E-02    0.142E-01
DAV:   3    -0.366992998328E+04   -0.41793E-03   -0.13103E-03  2892   0.690E-02    0.213E-01
DAV:   4    -0.366992921645E+04    0.76683E-03   -0.68711E-04  2652   0.504E-02    0.777E-02
DAV:   5    -0.366992954902E+04   -0.33257E-03   -0.26689E-03  3044   0.365E-02    0.142E-01
DAV:   6    -0.366992923451E+04    0.31452E-03   -0.17102E-03  2708   0.295E-02    0.189E-02
DAV:   7    -0.366992928972E+04   -0.55219E-04   -0.74412E-05  2508   0.138E-02    0.158E-02
DAV:   8    -0.366992928631E+04    0.34151E-05   -0.17345E-05  1676   0.965E-03
  78 F= -.37164566E+04 E0= -.37163758E+04  d E =-.984854E-02
       N       E                     dE             d eps       ncg     rms          rms(c)
DAV:   1    -0.366993457263E+04   -0.52829E-02   -0.73197E-01  2354   0.862E-01    0.167E-01
DAV:   2    -0.366993608509E+04   -0.15125E-02   -0.16623E-02  2620   0.117E-01    0.158E-01
DAV:   3    -0.366993656542E+04   -0.48033E-03   -0.39003E-03  2900   0.733E-02    0.223E-01
DAV:   4    -0.366993572723E+04    0.83819E-03   -0.10324E-03  2716   0.571E-02    0.908E-02
DAV:   5    -0.366993611300E+04   -0.38578E-03   -0.26356E-03  2940   0.430E-02    0.167E-01
DAV:   6    -0.366993575097E+04    0.36203E-03   -0.22140E-03  2716   0.403E-02    0.438E-02
DAV:   7    -0.366993577675E+04   -0.25780E-04   -0.16464E-04  2516   0.269E-02    0.168E-02
DAV:   8    -0.366993577648E+04    0.26886E-06   -0.38073E-05  2468   0.884E-03
  79 F= -.37164631E+04 E0= -.37163824E+04  d E =-.648422E-02
