unknown system                          
            1
    41.908700    0.000000    0.000000
    -0.153403   37.007582    0.000000
     0.416001   -0.165295    7.855486
   H    C    N    O    Mg
    88   288    32    64    32
Direct configuration=     1
   0.56532627  0.54049266  0.00456361
   0.43608512  0.53085315  0.54493080
   0.07495037  0.02862323  0.00977722
   0.93445358  0.04585104  0.47398152
   0.43350126  0.46532201  0.50179726
   0.56392317  0.47447401  0.97155941
   0.93092279  0.98062363  0.50231077
   0.07246479  0.96318052  0.04498243
   0.66958691  0.64512818  0.12424285
   0.34520587  0.65358322  0.12986296
   0.16172428  0.16263697  0.23471385
   0.84241131  0.15753343  0.36239070
   0.34131218  0.34610850  0.44755104
   0.65778945  0.35136739  0.31519647
   0.83050918  0.86108021  0.38489190
   0.15410021  0.83891800  0.07430422
   0.65206200  0.76129477  0.28231690
   0.33311871  0.77340177  0.21536715
   0.16439524  0.28077898  0.26449081
   0.83758486  0.27510680  0.47129917
   0.34841416  0.22855380  0.35083614
   0.66194365  0.23138185  0.16350267
   0.84248770  0.74426510  0.27049966
   0.15403444  0.72298493  0.98511303
   0.70389129  0.78997207  0.36449526
   0.28023676  0.79501474  0.12194191
   0.21853899  0.29932517  0.36268506
   0.78519385  0.29815475  0.37575851
   0.29421858  0.20820057  0.26113536
   0.71439332  0.20543592  0.24239435
   0.79047140  0.71789519  0.18057688
   0.20785062  0.70069716  0.06692341
   0.70845711  0.67977744  0.00626096
   0.29449162  0.66516817  0.20276942
   0.20642001  0.17876567  0.10351616
   0.79667467  0.16795752  0.45425177
   0.30192030  0.32317474  0.57720845
   0.70342020  0.33734985  0.23353217
   0.78820226  0.82945020  0.53146963
   0.19764793  0.82839810  0.92641346
   0.49559180  0.62717921  0.27481245
   0.00482745  0.12673895  0.16550419
   0.50016273  0.37941577  0.19906436
   0.00073082  0.88273112  0.34653038
   0.55730234  0.54029550  0.46532297
   0.43523781  0.53007047  0.04965691
   0.07709077  0.01759900  0.52678586
   0.94090856  0.02813321  0.01404548
   0.43524356  0.46454949  0.01722275
   0.56012026  0.47416032  0.44462880
   0.94072124  0.96266892  0.04020023
   0.07466817  0.95151007  0.53179900
   0.66351242  0.64203775  0.54443681
   0.34627772  0.65863482  0.65730188
   0.15267677  0.16396846  0.74688414
   0.84164321  0.13718896  0.84043673
   0.33668489  0.36126935  0.92554437
   0.65972795  0.35374493  0.84536545
   0.83586807  0.84649311  0.93275486
   0.15791742  0.83397562  0.52466018
   0.65256356  0.75668289  0.77225865
   0.33413442  0.77756273  0.71795718
   0.15028732  0.28289247  0.73139313
   0.84153989  0.25778231  0.97448821
   0.33453965  0.24063634  0.87584927
   0.66345443  0.23435076  0.66126842
   0.84357227  0.72994744  0.73145489
   0.15673358  0.71762294  0.48998052
   0.70521996  0.78048607  0.86082355
   0.28075105  0.79520890  0.61520164
   0.20230749  0.30757802  0.82861406
   0.79063238  0.28767919  0.90289196
   0.28097292  0.21826281  0.79342798
   0.71490878  0.20410157  0.72279135
   0.79003112  0.70566560  0.65770368
   0.20991666  0.69767063  0.58924775
   0.70449564  0.67066559  0.50145484
   0.29777712  0.66883773  0.75803811
   0.19807703  0.18066576  0.63986594
   0.79569727  0.15526696  0.87565794
   0.28966346  0.34281281  0.01566670
   0.70839844  0.33614149  0.78563171
   0.79347955  0.81874285  0.99163652
   0.20127218  0.81954013  0.36644871
   0.49875073  0.62589354  0.82051726
   0.00715024  0.11183649  0.72201645
   0.50685447  0.38017465  0.76277346
   0.00271189  0.86844084  0.71951120
   0.52581285  0.58137893  0.21502895
   0.46970837  0.57828292  0.33223530
   0.03235950  0.07850063  0.15121689
   0.97732925  0.08342003  0.27551068
   0.47213482  0.42549551  0.27784150
   0.52804324  0.42730200  0.16268977
   0.97223167  0.93114205  0.35618153
   0.02869260  0.92570945  0.24526854
   0.52475651  0.54311712  0.18588581
   0.47214428  0.54017451  0.34200807
   0.03127774  0.04013977  0.16383092
   0.97750959  0.04572662  0.31185752
   0.47284917  0.46337661  0.31063837
   0.52583110  0.46581335  0.15763860
   0.97436546  0.96929298  0.34801217
   0.02906716  0.96311197  0.20809159
   0.54814761  0.52466689  0.08062010
   0.45009864  0.51816842  0.43821463
   0.05548935  0.01686758  0.08953702
   0.95238455  0.02901799  0.40802473
   0.44981714  0.48137145  0.42128478
   0.54812708  0.48789534  0.06628290
   0.95041102  0.99249629  0.42332397
   0.05407078  0.98017898  0.10936236
   0.64720220  0.65864438  0.09850965
   0.36139121  0.66958742  0.20640652
   0.14234150  0.17692354  0.17699856
   0.86162805  0.17046131  0.43081916
   0.36361104  0.33286242  0.47553286
   0.63871717  0.33760668  0.24930691
   0.85200622  0.84731183  0.42395660
   0.13349266  0.82858394  0.00566546
   0.64705814  0.69583671  0.11329889
   0.35054373  0.70345128  0.25413612
   0.14875380  0.21269358  0.14741547
   0.85368159  0.20404325  0.49763092
   0.36135119  0.29598863  0.48916055
   0.64668700  0.30401489  0.17766877
   0.84961785  0.81007664  0.42742256
   0.13954762  0.79520357  0.93104297
   0.67595464  0.71615622  0.14992898
   0.31925629  0.71706644  0.20592207
   0.18044528  0.22714090  0.18820129
   0.82227421  0.21916864  0.46058078
   0.33018353  0.27900982  0.46095539
   0.67752136  0.28678581  0.20364363
   0.81967405  0.79077728  0.39603534
   0.17089263  0.77843382  0.95739839
   0.67501845  0.74902276  0.24303773
   0.31405956  0.75429807  0.18913791
   0.18471064  0.26228779  0.25319075
   0.81803003  0.25654799  0.44517656
   0.32724059  0.24511690  0.37985670
   0.68162416  0.24907178  0.19812278
   0.81984338  0.75759455  0.30605149
   0.17460896  0.74135226  0.98888602
   0.70337524  0.76500766  0.28879097
   0.28497236  0.76638579  0.13663875
   0.21435692  0.27261200  0.30734791
   0.78937278  0.26940889  0.39222032
   0.29753725  0.23391768  0.32845165
   0.71042454  0.23451842  0.24162919
   0.79135889  0.74281066  0.25676903
   0.20386287  0.72891104  0.03330479
   0.73230180  0.74761784  0.24191604
   0.26100716  0.74113888  0.10302342
   0.23960711  0.24765164  0.29395568
   0.76507997  0.24479902  0.35404617
   0.27108447  0.25687902  0.35795711
   0.73482643  0.25797759  0.29142300
   0.76283293  0.76134067  0.30072140
   0.22977340  0.75300421  0.04539254
   0.70638200  0.70293974  0.09503009
   0.29289394  0.69416886  0.17869048
   0.20791017  0.20517431  0.16761520
   0.79560395  0.19695408  0.43044039
   0.30161376  0.29826827  0.49935528
   0.70436020  0.30787603  0.24123751
   0.78968713  0.80559005  0.44660767
   0.19858372  0.79967607  0.96202787
   0.61788588  0.71559233  0.12241001
   0.36764100  0.72865139  0.35466000
   0.12695456  0.23931599  0.09132542
   0.87321102  0.22869853  0.58764365
   0.38847766  0.27315507  0.49923477
   0.62509083  0.28496369  0.07849551
   0.87719505  0.78805147  0.41729010
   0.11871587  0.77451352  0.83028306
   0.49740548  0.59787881  0.27690662
   0.00449827  0.09811861  0.19490801
   0.49975384  0.40863061  0.20910546
   0.00015446  0.91105879  0.31997039
   0.49866352  0.52243281  0.25539642
   0.00388359  0.02386043  0.24811498
   0.49906516  0.48378307  0.24054224
   0.00275519  0.98535425  0.26889883
   0.52497356  0.58009062  0.71935286
   0.47015004  0.57796704  0.84673907
   0.03517609  0.06380035  0.68282038
   0.97872136  0.06648685  0.78834263
   0.47368607  0.42408906  0.79526000
   0.53003212  0.42754832  0.68099075
   0.97478751  0.91379597  0.83506577
   0.03075837  0.91071530  0.71985976
   0.52259432  0.54241532  0.67925529
   0.47162615  0.53951420  0.84890724
   0.03411762  0.02555247  0.68348335
   0.98004674  0.02883995  0.82244274
   0.47351494  0.46241732  0.82062196
   0.52569209  0.46520013  0.65805971
   0.97862056  0.95218894  0.85231649
   0.03270981  0.94913631  0.70584435
   0.54338446  0.52420019  0.55717880
   0.44997504  0.51739398  0.94641889
   0.05866773  0.00375801  0.60357655
   0.95740446  0.01172286  0.93447059
   0.45072068  0.48059269  0.93250682
   0.54539109  0.48704620  0.54801561
   0.95716924  0.97475198  0.94883458
   0.05767820  0.96732930  0.61113256
   0.64131048  0.65735733  0.54379668
   0.36337414  0.67384593  0.73075688
   0.13362789  0.17571467  0.67716864
   0.86112226  0.15138993  0.90031773
   0.35663877  0.34491659  0.96438350
   0.64174309  0.33986310  0.77167886
   0.85720765  0.82974605  0.93919457
   0.13705798  0.82254498  0.46627888
   0.64307499  0.69393583  0.58655749
   0.35352120  0.70829945  0.77656726
   0.13903986  0.21112655  0.63615076
   0.85401771  0.18578942  0.95997668
   0.34925915  0.30886317  0.98238778
   0.65051478  0.30664063  0.69932803
   0.85428456  0.79323007  0.90573925
   0.14225886  0.78775014  0.40516919
   0.67340975  0.71095985  0.63090969
   0.32158430  0.72088751  0.73099710
   0.16909634  0.22882436  0.68586768
   0.82354555  0.20376157  0.92661500
   0.31726713  0.29436484  0.94419776
   0.68077819  0.28793726  0.72666070
   0.82340801  0.77695576  0.86610354
   0.17367432  0.77169656  0.43525254
   0.67466457  0.74284901  0.73052117
   0.31537104  0.75737367  0.70026192
   0.17125706  0.26553533  0.73357931
   0.82107018  0.24163121  0.93777400
   0.31377587  0.25836783  0.88701439
   0.68366636  0.25028582  0.70392449
   0.82161068  0.74437148  0.77254729
   0.17725992  0.73588104  0.48704239
   0.70388118  0.75626875  0.78006470
   0.28607045  0.76730736  0.64346625
   0.20000127  0.27936851  0.78779599
   0.79303326  0.25838978  0.89719883
   0.28425436  0.24580258  0.84094979
   0.71194286  0.23322997  0.73855071
   0.79203242  0.73096279  0.72946515
   0.20648574  0.72478257  0.54253053
   0.73218175  0.73793963  0.72816682
   0.26275571  0.74052536  0.61866482
   0.22663283  0.25658043  0.79237060
   0.76736450  0.23713354  0.84556720
   0.25794638  0.26925099  0.85058013
   0.73733767  0.25407133  0.79744505
   0.76416547  0.75055404  0.77724027
   0.23200607  0.74960994  0.54609184
   0.70329756  0.69498131  0.58313985
   0.29554284  0.69674827  0.71766256
   0.19764031  0.20872009  0.68707390
   0.79594976  0.18487115  0.87956922
   0.28904211  0.31520065  0.95753124
   0.70828213  0.30657795  0.77628585
   0.79392913  0.79392175  0.91319053
   0.20169690  0.79305240  0.42556551
   0.61334236  0.71184016  0.62410794
   0.37065179  0.73538363  0.86647596
   0.11797214  0.23278605  0.54629580
   0.87404257  0.20754656  0.06164723
   0.37127921  0.28104998  0.01864382
   0.62969238  0.28921747  0.58740130
   0.88239862  0.77187036  0.87381513
   0.12022370  0.76495989  0.32327582
   0.49838128  0.59690977  0.79933662
   0.00695481  0.08283985  0.72695011
   0.50301996  0.40858827  0.74269466
   0.00155102  0.89539036  0.76921157
   0.49765328  0.52173873  0.75766932
   0.00656010  0.00803491  0.75873580
   0.49887607  0.48294751  0.74413137
   0.00599474  0.96953452  0.77306591
   0.58662084  0.58606552  0.21864120
   0.55643267  0.60080642  0.17042178
   0.55928208  0.63353911  0.08180477
   0.59102472  0.64664588  0.01776842
   0.61986706  0.63552762  0.08769737
   0.61869886  0.60226454  0.16988760
   0.41652514  0.66047817  0.32854696
   0.38896710  0.64881385  0.24796476
   0.38776235  0.61042458  0.20539012
   0.41019535  0.58566048  0.27493482
   0.43868301  0.59771223  0.34821354
   0.43856651  0.63552333  0.39876412
   0.08926038  0.16037773  0.05360770
   0.11533956  0.15364393  0.15536835
   0.11616874  0.11884511  0.22931508
   0.08956926  0.09199893  0.21403314
   0.06197863  0.09999280  0.12370402
   0.06302853  0.13311808  0.03448445
   0.88851530  0.11628872  0.31863319
   0.89022826  0.14956105  0.40712730
   0.92072106  0.16021635  0.46122449
   0.95041639  0.14012436  0.41144371
   0.94939105  0.10711783  0.31935689
   0.91797332  0.09589380  0.26901103
   0.42235642  0.35088602  0.50524947
   0.39037299  0.35688312  0.45614494
   0.38512960  0.38864333  0.36370311
   0.41209352  0.41231133  0.30225229
   0.44418971  0.40364288  0.33284908
   0.44881216  0.37176708  0.42069668
   0.58744754  0.41923509  0.21374033
   0.55779269  0.40570884  0.15307073
   0.55671975  0.36675377  0.12269345
   0.58015108  0.34563080  0.19766187
   0.61051686  0.35878930  0.24245025
   0.61336965  0.39716845  0.26101661
   0.90821201  0.85935395  0.51087580
   0.87948846  0.87035809  0.43694852
   0.88194775  0.90210515  0.33308978
   0.91249949  0.92364117  0.31684964
   0.94103555  0.91273231  0.39299362
   0.93894504  0.87920034  0.47721921
   0.07302024  0.84432935  0.02324829
   0.10630378  0.85222432  0.03965391
   0.11253071  0.88503760  0.12831845
   0.08835147  0.90790652  0.21186772
   0.05483558  0.89980993  0.19494477
   0.04901839  0.86512754  0.12658389
   0.61456095  0.59990748  0.60756597
   0.61313098  0.63559054  0.54059440
   0.58245448  0.64831333  0.49908368
   0.55430957  0.63443032  0.59128625
   0.55442755  0.59999394  0.66603707
   0.58520438  0.58316102  0.67910668
   0.44077224  0.63728556  0.91159647
   0.44040211  0.59962702  0.85915950
   0.41223656  0.58865230  0.78344032
   0.38958844  0.61430580  0.71712632
   0.39050411  0.65207534  0.76607195
   0.41718627  0.66337184  0.85508259
   0.07810621  0.15178483  0.59372675
   0.10908101  0.14899904  0.65109676
   0.11727614  0.11279705  0.70817112
   0.09439022  0.08152247  0.71154033
   0.06407441  0.08577209  0.64809316
   0.05930720  0.11899903  0.56469049
   0.89010134  0.09348541  0.84385309
   0.89050139  0.13089833  0.89085265
   0.92174285  0.14601259  0.90491842
   0.94990505  0.12488468  0.86916596
   0.94939864  0.08800516  0.82081753
   0.91824619  0.07272304  0.80147604
   0.41374167  0.41748486  0.81359968
   0.44484192  0.40256199  0.83634209
   0.44528733  0.36797482  0.90713022
   0.41742022  0.35119366  0.98558503
   0.38625316  0.36483985  0.95420291
   0.38580391  0.40017929  0.88780178
   0.61554739  0.39904168  0.77864757
   0.61335070  0.36064320  0.75321738
   0.58329646  0.34653633  0.70616495
   0.55844821  0.36751397  0.64401165
   0.56024782  0.40657634  0.66902646
   0.58933303  0.42109469  0.73160368
   0.88523836  0.88605438  0.88373751
   0.88601453  0.85045770  0.94495858
   0.91668202  0.83822281  0.99151287
   0.94502495  0.85506740  0.91198204
   0.94524573  0.89264008  0.87440456
   0.91383269  0.90725681  0.86162167
   0.07640020  0.83510777  0.48047474
   0.10968507  0.84508954  0.50224625
   0.11451521  0.87711923  0.60173874
   0.08952048  0.89718379  0.68786233
   0.05690684  0.88684413  0.66312007
   0.05178945  0.85251345  0.58985611
   0.73366172  0.71756407  0.14163484
   0.26481610  0.70542545  0.12834781
   0.23644569  0.21475904  0.21941130
   0.76807180  0.20886313  0.37695752
   0.27320174  0.28821320  0.44777452
   0.73182643  0.29426862  0.28507593
   0.76210532  0.79165221  0.39944460
   0.22699686  0.78831343  0.00514325
   0.58719346  0.72177527  0.66083861
   0.38043642  0.76055239  0.93941547
   0.10212208  0.25199758  0.46975996
   0.88633955  0.22712877  0.15742595
   0.38591867  0.25493459  0.04292498
   0.61219252  0.27715644  0.49060611
   0.90575738  0.75561487  0.83497159
   0.10544745  0.74429921  0.24456790
   0.73139609  0.70756961  0.62973158
   0.26729887  0.70593477  0.66235524
   0.22521729  0.22170435  0.73839766
   0.76889020  0.20060987  0.83982821
   0.26049794  0.30351839  0.91179008
   0.73536847  0.29046406  0.81202921
   0.76551012  0.78180197  0.86935128
   0.22963284  0.78293768  0.48080559
   0.59387423  0.73179471  0.13699650
   0.37910057  0.75096537  0.44005411
   0.11210537  0.26336707  0.05107245
   0.88481933  0.25227177  0.66489717
   0.41045955  0.25384073  0.50251101
   0.60657421  0.27054434  0.99173897
   0.89943646  0.76911393  0.39026225
   0.10503943  0.75547890  0.73806270
   0.58875464  0.55903055  0.31817092
   0.53545479  0.65620572  0.05048140
   0.59120624  0.67016392  0.90040158
   0.64355174  0.58568064  0.21930197
   0.42638770  0.69573482  0.33393349
   0.36788168  0.59638104  0.10037541
   0.40150162  0.54973378  0.25542251
   0.46001305  0.64870745  0.49693221
   0.08661886  0.18952119  0.96935838
   0.14038485  0.10789500  0.30965552
   0.09363003  0.06147175  0.28920492
   0.04098704  0.14271982  0.93576193
   0.86118980  0.10227341  0.27605805
   0.92311428  0.18677861  0.56752030
   0.97633259  0.15477727  0.48307509
   0.91400855  0.06663107  0.17821215
   0.43088987  0.32850544  0.61684468
   0.35662647  0.39816066  0.32061034
   0.40460412  0.43967657  0.21169899
   0.47740287  0.35898710  0.43834549
   0.59476642  0.45597666  0.22813301
   0.53530672  0.34816001  0.04089316
   0.57157711  0.30984063  0.22465690
   0.63959158  0.41332286  0.31296831
   0.91067467  0.82983420  0.59429174
   0.86052022  0.91109935  0.23031932
   0.91128650  0.94909534  0.20858624
   0.96374718  0.86215397  0.52126966
   0.06252247  0.82023668  0.91885159
   0.14428241  0.89766182  0.13153915
   0.09908078  0.93353845  0.31343152
   0.01981527  0.84848614  0.13525496
   0.64090141  0.58097217  0.60394107
   0.57857270  0.67305343  0.38755232
   0.52935599  0.65842791  0.59875084
   0.58867754  0.55259949  0.75571352
   0.46140778  0.64995125  0.01477537
   0.40447292  0.55318780  0.75466136
   0.36927439  0.60082911  0.61247335
   0.42209313  0.69725617  0.89844420
   0.06096578  0.18268320  0.57525677
   0.14391913  0.10711632  0.77832242
   0.10447319  0.05265624  0.78413005
   0.03560323  0.12256682  0.47040159
   0.86186044  0.07259621  0.85352716
   0.92806685  0.18116780  0.94131658
   0.97717440  0.14489615  0.88318043
   0.91370265  0.03919392  0.74862688
   0.40922891  0.44749586  0.73165871
   0.47288217  0.34769623  0.90918073
   0.42173844  0.32341095  0.08319609
   0.35836674  0.42100590  0.89624376
   0.64019727  0.41437063  0.85203585
   0.57559366  0.31046793  0.72761267
   0.53412928  0.34752570  0.57851491
   0.59297742  0.45714696  0.78133117
   0.85784378  0.90358425  0.85068200
   0.91957440  0.81255674  0.09887458
   0.96952223  0.83062700  0.87980786
   0.90734124  0.94209418  0.81958714
   0.06680555  0.81240789  0.36772664
   0.14573315  0.89125537  0.62027736
   0.09726181  0.92336638  0.79558937
   0.02350285  0.83460529  0.59720914
   0.55024324  0.68119575  0.81071501
   0.63441860  0.54957962  0.40004470
   0.38236917  0.54636138  0.01033505
   0.46666159  0.70067861  0.46658846
   0.14088170  0.05409927  0.27537829
   0.04890921  0.19051552  0.82949060
   0.95892940  0.18090494  0.71134858
   0.87055112  0.06804133  0.09573634
   0.36066126  0.43330709  0.14166249
   0.48047425  0.33832956  0.65730562
   0.56638073  0.30609939  0.97165412
   0.63068723  0.46333638  0.38999205
   0.87838447  0.94265755  0.03303588
   0.95557329  0.81610419  0.64278578
   0.13785728  0.90947931  0.38230379
   0.01641524  0.83310993  0.88878074
   0.53382169  0.68244111  0.33050854
   0.59314062  0.50397450  0.66994040
   0.38912011  0.55535068  0.51470676
   0.44680480  0.69874339  0.10080476
   0.14384995  0.06029004  0.90570977
   0.02126719  0.17033103  0.42249886
   0.96984418  0.18327196  0.06612896
   0.87050857  0.02105484  0.75094777
   0.46659876  0.31210212  0.08849547
   0.36952839  0.47174985  0.80790715
   0.56855685  0.31073089  0.47498896
   0.61543793  0.44769665  0.99559152
   0.94324283  0.78909310  0.27133923
   0.86980225  0.93913610  0.66907814
   0.13598296  0.90235230  0.87459443
   0.01691844  0.81642820  0.35434893
Direct configuration=     2
   0.56533965  0.54050778  0.00444746
   0.43609572  0.53085220  0.54486304
   0.07470082  0.02851147  0.01051187
   0.93430222  0.04595283  0.47443171
   0.43349887  0.46533320  0.50173405
   0.56393768  0.47448942  0.97178480
   0.93104723  0.98072117  0.50174772
   0.07238568  0.96328931  0.04511316
   0.66950589  0.64516881  0.12378012
   0.34525798  0.65366079  0.12969917
   0.16165505  0.16270163  0.23487681
   0.84245968  0.15757811  0.36291676
   0.34133894  0.34608972  0.44753611
   0.65775550  0.35135283  0.31514771
   0.83059467  0.86100884  0.38564398
   0.15376768  0.83873577  0.07322120
   0.65205944  0.76126225  0.28232733
   0.33316417  0.77344547  0.21521659
   0.16443448  0.28075392  0.26460201
   0.83756654  0.27505839  0.47130624
   0.34842524  0.22857393  0.35076815
   0.66194876  0.23138876  0.16354235
   0.84247666  0.74425890  0.27019992
   0.15414924  0.72319213  0.98508177
   0.70387146  0.78997088  0.36448051
   0.28025354  0.79502349  0.12171939
   0.21853791  0.29931498  0.36276175
   0.78523159  0.29809195  0.37589653
   0.29423920  0.20827243  0.26132244
   0.71440834  0.20544770  0.24233544
   0.79045205  0.71793970  0.18096088
   0.20771696  0.70097406  0.06604507
   0.70844266  0.67974247  0.00651900
   0.29452921  0.66523621  0.20267119
   0.20641723  0.17872200  0.10336899
   0.79667678  0.16796665  0.45415157
   0.30195201  0.32311082  0.57706590
   0.70342440  0.33735700  0.23352519
   0.78819851  0.82946082  0.53117315
   0.19763031  0.82803630  0.92665615
   0.49561704  0.62718181  0.27493892
   0.00479701  0.12695581  0.16547886
   0.50016211  0.37946867  0.19886142
   0.00031186  0.88267387  0.34660314
   0.55736652  0.54031914  0.46520237
   0.43521444  0.53008908  0.04970848
   0.07721030  0.01753461  0.52650312
   0.94095214  0.02815009  0.01412889
   0.43520750  0.46454331  0.01723892
   0.56013764  0.47413546  0.44482236
   0.94063859  0.96255600  0.04113352
   0.07472343  0.95151427  0.53266269
   0.66352165  0.64203210  0.54463511
   0.34622959  0.65860777  0.65687858
   0.15276179  0.16395475  0.74726387
   0.84163355  0.13717101  0.84001456
   0.33669786  0.36123024  0.92582666
   0.65968478  0.35372465  0.84515200
   0.83587200  0.84631757  0.93292669
   0.15808111  0.83405365  0.52488721
   0.65252903  0.75670711  0.77244248
   0.33403855  0.77746129  0.71770258
   0.15027149  0.28285889  0.73154701
   0.84150815  0.25775700  0.97449306
   0.33454584  0.24060980  0.87590697
   0.66346608  0.23436815  0.66124842
   0.84344245  0.72997788  0.73180163
   0.15670645  0.71762083  0.49013137
   0.70524742  0.78048302  0.86057129
   0.28074791  0.79527260  0.61496972
   0.20228683  0.30752803  0.82857218
   0.79061618  0.28769739  0.90287959
   0.28097175  0.21825413  0.79347069
   0.71491560  0.20409934  0.72279704
   0.78997863  0.70564270  0.65743435
   0.20992752  0.69762188  0.58925567
   0.70448578  0.67071023  0.50129357
   0.29778577  0.66875121  0.75794417
   0.19806326  0.18067079  0.63980256
   0.79567784  0.15529529  0.87569525
   0.28961169  0.34226569  0.01405263
   0.70838173  0.33613790  0.78571638
   0.79348453  0.81868798  0.99175730
   0.20125177  0.81960965  0.36655278
   0.49872712  0.62594755  0.82006576
   0.00715170  0.11199182  0.72170574
   0.50688244  0.38028953  0.76407606
   0.00144334  0.86766902  0.71954718
   0.52591383  0.58136268  0.21488932
   0.46972524  0.57828681  0.33230321
   0.03257389  0.07836281  0.15071024
   0.97733637  0.08349006  0.27485987
   0.47215087  0.42559376  0.27772864
   0.52801488  0.42725091  0.16259726
   0.97187510  0.93058259  0.35689493
   0.02806106  0.92472190  0.24760912
   0.52470686  0.54315238  0.18598081
   0.47221623  0.54008103  0.34182560
   0.03114933  0.04025400  0.16436937
   0.97781071  0.04585292  0.31025708
   0.47288043  0.46337758  0.31039578
   0.52579499  0.46591342  0.15775573
   0.97498115  0.96980429  0.34656183
   0.02922799  0.96368796  0.20765033
   0.54815780  0.52468990  0.08054384
   0.45009939  0.51820341  0.43815222
   0.05560961  0.01686737  0.08926459
   0.95225846  0.02911341  0.40846276
   0.44981848  0.48137743  0.42122222
   0.54818623  0.48786706  0.06606355
   0.95040654  0.99215526  0.42393719
   0.05439921  0.98009893  0.10882781
   0.64725258  0.65852637  0.09842645
   0.36147793  0.66937964  0.20602983
   0.14244070  0.17694567  0.17707784
   0.86143784  0.17052804  0.43046730
   0.36364455  0.33286925  0.47555283
   0.63877830  0.33764245  0.24951699
   0.85188197  0.84747105  0.42331766
   0.13372460  0.82896643  0.00694629
   0.64696641  0.69585200  0.11323085
   0.35066654  0.70356590  0.25457495
   0.14856884  0.21307960  0.14648839
   0.85373262  0.20392251  0.49735253
   0.36139464  0.29603100  0.48916954
   0.64669275  0.30403075  0.17786743
   0.84964213  0.80992020  0.42713252
   0.13943785  0.79510559  0.93008520
   0.67597761  0.71623392  0.15002967
   0.31914942  0.71711528  0.20583244
   0.18035929  0.22692197  0.18785176
   0.82225306  0.21914540  0.46053495
   0.33019341  0.27903873  0.46104991
   0.67752004  0.28676115  0.20367699
   0.81977641  0.79086547  0.39594494
   0.17067265  0.77806182  0.95759820
   0.67504386  0.74897145  0.24282402
   0.31397829  0.75432014  0.18896349
   0.18456439  0.26234724  0.25318540
   0.81815673  0.25655724  0.44538642
   0.32725269  0.24508395  0.37980115
   0.68157451  0.24917015  0.19810283
   0.81988164  0.75763527  0.30582438
   0.17395737  0.74151281  0.98801139
   0.70333062  0.76497405  0.28873566
   0.28511742  0.76635708  0.13710494
   0.21444866  0.27257202  0.30736742
   0.78924185  0.26949348  0.39189753
   0.29749144  0.23388836  0.32835573
   0.71050318  0.23453324  0.24181936
   0.79140996  0.74281204  0.25674697
   0.20456328  0.72839772  0.03476974
   0.73227465  0.74758043  0.24205942
   0.26081926  0.74108711  0.10316348
   0.23956011  0.24775333  0.29398492
   0.76511194  0.24474994  0.35413444
   0.27116141  0.25679689  0.35794975
   0.73488170  0.25797572  0.29161343
   0.76283753  0.76140498  0.30101807
   0.22967720  0.75329426  0.04492027
   0.70639202  0.70297484  0.09526612
   0.29290743  0.69403770  0.17852716
   0.20782128  0.20529686  0.16787321
   0.79567936  0.19695544  0.43052646
   0.30162339  0.29831790  0.49952705
   0.70431934  0.30789851  0.24125947
   0.78972511  0.80558164  0.44639191
   0.19884172  0.80051791  0.96129608
   0.61786058  0.71559510  0.12230418
   0.36762715  0.72863282  0.35467462
   0.12896643  0.23613485  0.09669962
   0.87314913  0.22858424  0.58759807
   0.38825641  0.27340314  0.49915476
   0.62506807  0.28490915  0.07852533
   0.87726773  0.78807601  0.41730120
   0.11879612  0.77459707  0.83105934
   0.49741966  0.59785857  0.27692865
   0.00443450  0.09787862  0.19503494
   0.49972239  0.40864332  0.20890711
   0.00078307  0.91166909  0.31806868
   0.49863142  0.52249267  0.25548258
   0.00387784  0.02378675  0.24794125
   0.49902808  0.48372651  0.24061067
   0.00227071  0.98529968  0.27115384
   0.52513110  0.58015756  0.71889044
   0.46999528  0.57802392  0.84683458
   0.03521482  0.06362224  0.68272875
   0.97880233  0.06646418  0.78836260
   0.47369902  0.42413098  0.79535983
   0.52989366  0.42755094  0.68120365
   0.97434830  0.91360565  0.83513669
   0.03126541  0.91200341  0.71929088
   0.52256749  0.54246280  0.67951572
   0.47161807  0.53949926  0.84889509
   0.03409843  0.02531367  0.68372865
   0.97973071  0.02898464  0.82421011
   0.47349525  0.46240367  0.82061960
   0.52567081  0.46527079  0.65818956
   0.97854170  0.95215691  0.85249856
   0.03259428  0.94910887  0.70525509
   0.54334101  0.52412889  0.55755410
   0.45001206  0.51744109  0.94606834
   0.05858126  0.00486322  0.60333901
   0.95754712  0.01093676  0.93427892
   0.45072760  0.48059532  0.93228850
   0.54540580  0.48702609  0.54810213
   0.95719927  0.97559541  0.94833530
   0.05751868  0.96629463  0.61151669
   0.64114884  0.65738146  0.54394322
   0.36346297  0.67382842  0.73101511
   0.13351446  0.17567691  0.67696436
   0.86126326  0.15138065  0.90043454
   0.35654368  0.34494824  0.96441473
   0.64175472  0.33984519  0.77145634
   0.85744242  0.82973399  0.93923861
   0.13690619  0.82253612  0.46614536
   0.64299451  0.69387390  0.58656539
   0.35343727  0.70842952  0.77664621
   0.13909841  0.21117649  0.63646194
   0.85399583  0.18578517  0.96013542
   0.34919701  0.30881001  0.98249730
   0.65044549  0.30648781  0.69864406
   0.85418866  0.79323569  0.90543533
   0.14230785  0.78773342  0.40512093
   0.67341654  0.71097015  0.63096874
   0.32153051  0.72065536  0.73097800
   0.16908372  0.22880376  0.68572802
   0.82352049  0.20373794  0.92657070
   0.31733275  0.29441550  0.94422099
   0.68072303  0.28802398  0.72665798
   0.82337107  0.77695911  0.86608717
   0.17374886  0.77174075  0.43517591
   0.67473624  0.74283831  0.73049164
   0.31563384  0.75751248  0.70041770
   0.17125782  0.26553879  0.73357554
   0.82104396  0.24170419  0.93784772
   0.31375402  0.25837887  0.88703782
   0.68368300  0.25019779  0.70387285
   0.82154856  0.74426004  0.77258439
   0.17724894  0.73593648  0.48706743
   0.70389936  0.75634248  0.77987860
   0.28591510  0.76714889  0.64324788
   0.19998798  0.27943989  0.78792351
   0.79305431  0.25829155  0.89731528
   0.28423811  0.24576304  0.84088255
   0.71191409  0.23328475  0.73852389
   0.79199874  0.73094046  0.72943378
   0.20652374  0.72489625  0.54249203
   0.73226118  0.73789582  0.72792812
   0.26277241  0.74063392  0.61832628
   0.22663076  0.25656605  0.79226626
   0.76737970  0.23718874  0.84573394
   0.25793745  0.26928107  0.85048933
   0.73729303  0.25398389  0.79736253
   0.76405022  0.75061081  0.77725610
   0.23198749  0.74957514  0.54613417
   0.70323153  0.69501655  0.58306885
   0.29567241  0.69692395  0.71742546
   0.19764812  0.20872536  0.68696196
   0.79593332  0.18488248  0.87957205
   0.28900908  0.31564114  0.95952012
   0.70830714  0.30652405  0.77642440
   0.79403110  0.79386906  0.91332464
   0.20165528  0.79293275  0.42585572
   0.61339357  0.71171866  0.62450356
   0.37046588  0.73484023  0.86490795
   0.11792174  0.23279480  0.54631624
   0.87407518  0.20757666  0.06185500
   0.37124481  0.28112871  0.01858864
   0.63077860  0.28993160  0.59322883
   0.88227810  0.77202355  0.87317869
   0.12040174  0.76516574  0.32366162
   0.49839053  0.59684506  0.79905488
   0.00684031  0.08269098  0.72729139
   0.50294790  0.40863989  0.74294885
   0.00244362  0.89569557  0.77055913
   0.49763636  0.52164859  0.75763518
   0.00679475  0.00803974  0.75828446