 Entering Gaussian System, Link 0=g16
 Input=one_3_frag.gjf
 Output=one_3_frag.log
 Initial command:
 /apps/applications/G16/g16.c01/l1.exe "/scratch/x2848a03/calculation/H2_COF/H2_cate_opt/SP/Gau-69085.inp" -scrdir="/scratch/x2848a03/calculation/H2_COF/H2_cate_opt/SP/"
 Default CPUs for threads: 4-7,12-15,20-23,28-31
 Default is to use a total of  16 processors:
                               16 via shared-memory
                                1 via Linda
 Entering Link 1 = /apps/applications/G16/g16.c01/l1.exe PID=     69086.
  
 Copyright (c) 1988-2019, Gaussian, Inc.  All Rights Reserved.
  
 This is part of the Gaussian(R) 16 program.  It is based on
 the Gaussian(R) 09 system (copyright 2009, Gaussian, Inc.),
 the Gaussian(R) 03 system (copyright 2003, Gaussian, Inc.),
 the Gaussian(R) 98 system (copyright 1998, Gaussian, Inc.),
 the Gaussian(R) 94 system (copyright 1995, Gaussian, Inc.),
 the Gaussian 92(TM) system (copyright 1992, Gaussian, Inc.),
 the Gaussian 90(TM) system (copyright 1990, Gaussian, Inc.),
 the Gaussian 88(TM) system (copyright 1988, Gaussian, Inc.),
 the Gaussian 86(TM) system (copyright 1986, Carnegie Mellon
 University), and the Gaussian 82(TM) system (copyright 1983,
 Carnegie Mellon University). Gaussian is a federally registered
 trademark of Gaussian, Inc.
  
 This software contains proprietary and confidential information,
 including trade secrets, belonging to Gaussian, Inc.
  
 This software is provided under written license and may be
 used, copied, transmitted, or stored only in accord with that
 written license.
  
 The following legend is applicable only to US Government
 contracts under FAR:
  
                    RESTRICTED RIGHTS LEGEND
  
 Use, reproduction and disclosure by the US Government is
 subject to restrictions as set forth in subparagraphs (a)
 and (c) of the Commercial Computer Software - Restricted
 Rights clause in FAR 52.227-19.
  
 Gaussian, Inc.
 340 Quinnipiac St., Bldg. 40, Wallingford CT 06492
  
  
 ---------------------------------------------------------------
 Warning -- This program may not be used in any manner that
 competes with the business of Gaussian, Inc. or will provide
 assistance to any competitor of Gaussian, Inc.  The licensee
 of this program is prohibited from giving any competitor of
 Gaussian, Inc. access to this program.  By using this program,
 the user acknowledges that Gaussian, Inc. is engaged in the
 business of creating and licensing software in the field of
 computational chemistry and represents and warrants to the
 licensee that it is not a competitor of Gaussian, Inc. and that
 it will not use this program in any manner prohibited above.
 ---------------------------------------------------------------
  

 Cite this work as:
 Gaussian 16, Revision C.01,
 M. J. Frisch, G. W. Trucks, H. B. Schlegel, G. E. Scuseria, 
 M. A. Robb, J. R. Cheeseman, G. Scalmani, V. Barone, 
 G. A. Petersson, H. Nakatsuji, X. Li, M. Caricato, A. V. Marenich, 
 J. Bloino, B. G. Janesko, R. Gomperts, B. Mennucci, H. P. Hratchian, 
 J. V. Ortiz, A. F. Izmaylov, J. L. Sonnenberg, D. Williams-Young, 
 F. Ding, F. Lipparini, F. Egidi, J. Goings, B. Peng, A. Petrone, 
 T. Henderson, D. Ranasinghe, V. G. Zakrzewski, J. Gao, N. Rega, 
 G. Zheng, W. Liang, M. Hada, M. Ehara, K. Toyota, R. Fukuda, 
 J. Hasegawa, M. Ishida, T. Nakajima, Y. Honda, O. Kitao, H. Nakai, 
 T. Vreven, K. Throssell, J. A. Montgomery, Jr., J. E. Peralta, 
 F. Ogliaro, M. J. Bearpark, J. J. Heyd, E. N. Brothers, K. N. Kudin, 
 V. N. Staroverov, T. A. Keith, R. Kobayashi, J. Normand, 
 K. Raghavachari, A. P. Rendell, J. C. Burant, S. S. Iyengar, 
 J. Tomasi, M. Cossi, J. M. Millam, M. Klene, C. Adamo, R. Cammi, 
 J. W. Ochterski, R. L. Martin, K. Morokuma, O. Farkas, 
 J. B. Foresman, and D. J. Fox, Gaussian, Inc., Wallingford CT, 2019.
 
 ******************************************
 Gaussian 16:  ES64L-G16RevC.01  3-Jul-2019
                12-Sep-2024 
 ******************************************
 SetSPE:  set environment variable "MP_BIND" = "yes"
 SetSPE:  set environment variable "MP_BLIST" = "4,5,6,7,12,13,14,15,20,21,22,23,28,29,30,31"
 Will use    1 GPUs:
 Thread  CPU   GPU
      0    4     0
      1    5    -1
      2    6    -1
      3    7    -1
      4   12    -1
      5   13    -1
      6   14    -1
      7   15    -1
      8   20    -1
      9   21    -1
     10   22    -1
     11   23    -1
     12   28    -1
     13   29    -1
     14   30    -1
     15   31    -1
 SetGPE:  set environment variable "MP_BIND" = "yes"
 SetGPE:  set environment variable "MP_BLIST" = "4,5,6,7,12,13,14,15,20,21,22,23,28,29,30,31"
 Properties for Device   0
 Minimum vector length:                              32
 Maximum vector length:                            1024
 Number of SMPs:                                     80
 Maximum number of threads per SMP:                2048
 Number of ASync Engines:                             7
 Memory:                                           1050959872
    945863884 words of memory will be used on each GPU.
 ---------------------------------
 # MP2/6-311+g(d,p) counterpoise=3
 ---------------------------------
 1/38=1,62=3,172=1/1;
 2/12=2,17=6,18=5,40=1/2;
 1/38=1,53=2,62=3,63=1/22;
 3/5=4,6=6,7=111,11=9,25=1,30=1/1,2,3;
 4//1;
 5/5=2,38=5/2;
 8/10=2/1;
 9/16=-3/6;
 6/7=2,8=2,9=2,10=2/1;
 1/53=2,62=3,63=1/22;
 3/5=7,6=11,7=111,11=9,25=1,30=1,82=7/1,2,3;
 4//1;
 5/5=2,38=5/2;
 8/10=2/1;
 9/16=-3/6;
 6/7=2,8=2,9=2,10=2/1;
 1/53=2,62=3,63=1/22(-6);
 99/5=1,9=1/99;
 ----------
 one_3_frag
 ----------
 Symbolic Z-matrix:
 Charge =  0 Multiplicity = 1 in supermolecule
 Charge =  0 Multiplicity = 1 in fragment      1.
 Charge =  0 Multiplicity = 1 in fragment      2.
 Charge =  0 Multiplicity = 1 in fragment      3.
 C(Fragment=1)        -1   -0.0246    1.40007   0. 
 C(Fragment=1)        -1   -1.23749   0.70046   0. 
 C(Fragment=1)        -1   -1.23752  -0.70037   0. 
 C(Fragment=1)        -1   -0.02464  -1.40013   0. 
 C(Fragment=1)        -1    1.20009  -0.71843   0. 
 C(Fragment=1)        -1    1.20005   0.71823   0. 
 O(Fragment=1)        -1    2.38325   1.407     0. 
 O(Fragment=1)        -1    2.38332  -1.40713   0. 
 H(Fragment=1)        -1   -2.17586  -1.2491    0. 
 H(Fragment=1)        -1   -2.17583   1.24922   0. 
 Mg(Fragment=1)       -1    3.62158  -0.00001   0. 
 H(Fragment=1)        -1    0.00115   2.48713   0. 
 H(Fragment=1)        -1    0.00093  -2.48721   0. 
 H(Fragment=2)        0     5.80065   0.01608   0.41854 
 H(Fragment=2)        0     5.81733  -0.01734  -0.32775 
 H(Fragment=3)        0     1.82556   0.00109   2.7085 
 H(Fragment=3)        0     2.32677  -0.00333   3.25496 
 
                          Input orientation:                          
 ---------------------------------------------------------------------
 Center     Atomic      Atomic             Coordinates (Angstroms)
 Number     Number       Type             X           Y           Z
 ---------------------------------------------------------------------
      1          6           0       -0.024595    1.400072    0.000000
      2          6           0       -1.237492    0.700460    0.000000
      3          6           0       -1.237520   -0.700370    0.000000
      4          6           0       -0.024642   -1.400130    0.000000
      5          6           0        1.200092   -0.718427    0.000000
      6          6           0        1.200046    0.718230    0.000000
      7          8           0        2.383247    1.407001    0.000000
      8          8           0        2.383318   -1.407126    0.000000
      9          1           0       -2.175863   -1.249095    0.000000
     10          1           0       -2.175827    1.249217    0.000000
     11         12           0        3.621576   -0.000011    0.000000
     12          1           0        0.001149    2.487128    0.000000
     13          1           0        0.000927   -2.487210    0.000000
     14          1           0        5.800652    0.016079    0.418543
     15          1           0        5.817330   -0.017336   -0.327749
     16          1           0        1.825563    0.001089    2.708501
     17          1           0        2.326769   -0.003331    3.254957
 ---------------------------------------------------------------------
                    Distance matrix (angstroms):
                    1          2          3          4          5
     1  C    0.000000
     2  C    1.400206   0.000000
     3  C    2.425499   1.400830   0.000000
     4  C    2.800202   2.425589   1.400263   0.000000
     5  C    2.447018   2.820471   2.437679   1.401675   0.000000
     6  C    1.401661   2.437603   2.820311   2.446898   1.436657
     7  O    2.407852   3.689031   4.189387   3.698366   2.432550
     8  O    3.698433   4.189533   3.689170   2.407970   1.369062
     9  H    3.412629   2.163632   1.087008   2.156516   3.417408
    10  H    2.156515   1.087017   2.163633   3.412717   3.907487
    11  Mg   3.905739   4.909297   4.909309   3.905796   2.525808
    12  H    1.087361   2.174032   3.419714   3.887344   3.422433
    13  H    3.887366   3.419784   2.174063   1.087381   2.136958
    14  H    6.002009   7.083716   7.086913   6.009565   4.677588
    15  H    6.020345   7.098814   7.095411   6.012335   4.681649
    16  H    3.565980   4.148181   4.148554   3.566883   2.871393
    17  H    4.253610   4.877912   4.876963   4.251462   3.517884
                    6          7          8          9         10
     6  C    0.000000
     7  O    1.369076   0.000000
     8  O    2.432544   2.814127   0.000000
     9  H    3.907317   5.276394   4.561919   0.000000
    10  H    3.417377   4.561804   5.276548   2.498312   0.000000
    11  Mg   2.525802   1.874338   1.874368   5.930473   5.930468
    12  H    2.136903   2.615543   4.565079   4.324204   2.504326
    13  H    3.422387   4.565121   2.615792   2.504265   4.324251
    14  H    4.672662   3.713287   3.725435   8.087066   8.082080
    15  H    4.686981   3.732168   3.719056   8.094182   8.099514
    16  H    2.870808   3.102189   3.103246   4.991027   4.990483
    17  H    3.519219   3.547812   3.545220   5.693889   5.695348
                   11         12         13         14         15
    11  Mg   0.000000
    12  H    4.392420   0.000000
    13  H    4.392637   4.974338   0.000000
    14  H    2.218966   6.317871   6.330754   0.000000
    15  H    2.220148   6.340956   6.327578   0.747226   0.000000
    16  H    3.249868   4.104248   4.105716   4.587534   5.015312
    17  H    3.503039   4.712286   4.708921   4.484806   5.001999
                   16         17
    16  H    0.000000
    17  H    0.741513   0.000000
 Stoichiometry    C6H8MgO2
 Framework group  C1[X(C6H8MgO2)]
 Deg. of freedom    45
 Full point group                 C1      NOp   1
 Largest Abelian subgroup         C1      NOp   1
 Largest concise Abelian subgroup C1      NOp   1
                         Standard orientation:                         
 ---------------------------------------------------------------------
 Center     Atomic      Atomic             Coordinates (Angstroms)
 Number     Number       Type             X           Y           Z
 ---------------------------------------------------------------------
      1          6           0       -1.307746    1.400059   -0.054687
      2          6           0       -2.520287    0.700369   -0.027244
      3          6           0       -2.520223   -0.700461   -0.027131
      4          6           0       -1.307608   -1.400143   -0.054461
      5          6           0       -0.083231   -0.718362   -0.082170
      6          6           0       -0.083372    0.718295   -0.082284
      7          8           0        1.099482    1.407143   -0.109056
      8          8           0        1.099739   -1.406984   -0.108831
      9          1           0       -3.458290   -1.249247   -0.005900
     10          1           0       -3.458419    1.249065   -0.006101
     11         12           0        2.337588    0.000210   -0.136903
     12          1           0       -1.282080    2.487116   -0.055356
     13          1           0       -1.281973   -2.487222   -0.054951
     14          1           0        4.525558    0.016475    0.232329
     15          1           0        4.525383   -0.017000   -0.514147
     16          1           0        0.603190    0.001416    2.611460
     17          1           0        1.116607   -0.002927    3.146460
 ---------------------------------------------------------------------
 Rotational constants (GHZ):           3.0052349           1.1187088           0.8655335
 Counterpoise: doing full-system calculation.
 Standard basis: 6-311+G(d,p) (5D, 7F)
 There are   263 symmetry adapted cartesian basis functions of A   symmetry.
 There are   254 symmetry adapted basis functions of A   symmetry.
   254 basis functions,   402 primitive gaussians,   263 cartesian basis functions
    36 alpha electrons       36 beta electrons
       nuclear repulsion energy       486.5878634923 Hartrees.
 NAtoms=   17 NActive=   17 NUniq=   17 SFac= 1.00D+00 NAtFMM=   60 NAOKFM=F Big=F
 Integral buffers will be    131072 words long.
 Raffenetti 1 integral format.
 Two-electron integral symmetry is turned on.
 One-electron integrals computed using PRISM.
 NBasis=   254 RedAO= T EigKep=  1.60D-06  NBF=   254
 NBsUse=   254 1.00D-06 EigRej= -1.00D+00 NBFU=   254
 ExpMin= 1.46D-02 ExpMax= 4.39D+04 ExpMxC= 1.51D+03 IAcc=3 IRadAn=         5 AccDes= 0.00D+00
 Harris functional with IExCor=  205 and IRadAn=       5 diagonalized for initial guess.
 HarFok:  IExCor=  205 AccDes= 0.00D+00 IRadAn=         5 IDoV= 1 UseB2=F ITyADJ=14
 ICtDFT=  3500011 ScaDFX=  1.000000  1.000000  1.000000  1.000000
 FoFCou: FMM=F IPFlag=           0 FMFlag=      100000 FMFlg1=           0
         NFxFlg=           0 DoJE=T BraDBF=F KetDBF=T FulRan=T
         wScrn=  0.000000 ICntrl=       500 IOpCl=  0 I1Cent=   200000004 NGrid=           0
         NMat0=    1 NMatS0=      1 NMatT0=    0 NMatD0=    1 NMtDS0=    0 NMtDT0=    0
 Petite list used in FoFCou.
 Requested convergence on RMS density matrix=1.00D-08 within 128 cycles.
 Requested convergence on MAX density matrix=1.00D-06.
 Requested convergence on             energy=1.00D-06.
 No special actions if energy rises.
 SCF Done:  E(RHF) =  -581.258333223     A.U. after   16 cycles
            NFock= 16  Conv=0.51D-08     -V/T= 2.0013
 ExpMin= 1.46D-02 ExpMax= 4.39D+04 ExpMxC= 1.51D+03 IAcc=3 IRadAn=         5 AccDes= 0.00D+00
 HarFok:  IExCor=  205 AccDes= 0.00D+00 IRadAn=         5 IDoV=-2 UseB2=F ITyADJ=14
 ICtDFT= 12500011 ScaDFX=  1.000000  1.000000  1.000000  1.000000
 Range of M.O.s used for correlation:    14   254
 NBasis=   254 NAE=    36 NBE=    36 NFC=    13 NFV=     0
 NROrb=    241 NOA=    23 NOB=    23 NVA=   218 NVB=   218

 **** Warning!!: The largest alpha MO coefficient is  0.20252859D+03

 Fully in-core method, ICMem=  1240587796.
 JobTyp=1 Pass  1 fully in-core, NPsUse= 16.
 Spin components of T(2) and E(2):
     alpha-alpha T2 =       0.6120426229D-01 E2=     -0.1721290810D+00
     alpha-beta  T2 =       0.3237375193D+00 E2=     -0.9640702860D+00
     beta-beta   T2 =       0.6120426229D-01 E2=     -0.1721290810D+00
 ANorm=    0.1202558125D+01
 E2 =    -0.1308328448D+01 EUMP2 =    -0.58256666167116D+03

 **********************************************************************

            Population analysis using the SCF Density.

 **********************************************************************

 Orbital symmetries:
       Occupied  (A) (A) (A) (A) (A) (A) (A) (A) (A) (A) (A) (A)
                 (A) (A) (A) (A) (A) (A) (A) (A) (A) (A) (A) (A)
                 (A) (A) (A) (A) (A) (A) (A) (A) (A) (A) (A) (A)
       Virtual   (A) (A) (A) (A) (A) (A) (A) (A) (A) (A) (A) (A)
                 (A) (A) (A) (A) (A) (A) (A) (A) (A) (A) (A) (A)
                 (A) (A) (A) (A) (A) (A) (A) (A) (A) (A) (A) (A)
                 (A) (A) (A) (A) (A) (A) (A) (A) (A) (A) (A) (A)
                 (A) (A) (A) (A) (A) (A) (A) (A) (A) (A) (A) (A)
                 (A) (A) (A) (A) (A) (A) (A) (A) (A) (A) (A) (A)
                 (A) (A) (A) (A) (A) (A) (A) (A) (A) (A) (A) (A)
                 (A) (A) (A) (A) (A) (A) (A) (A) (A) (A) (A) (A)
                 (A) (A) (A) (A) (A) (A) (A) (A) (A) (A) (A) (A)
                 (A) (A) (A) (A) (A) (A) (A) (A) (A) (A) (A) (A)
                 (A) (A) (A) (A) (A) (A) (A) (A) (A) (A) (A) (A)
                 (A) (A) (A) (A) (A) (A) (A) (A) (A) (A) (A) (A)
                 (A) (A) (A) (A) (A) (A) (A) (A) (A) (A) (A) (A)
                 (A) (A) (A) (A) (A) (A) (A) (A) (A) (A) (A) (A)
                 (A) (A) (A) (A) (A) (A) (A) (A) (A) (A) (A) (A)
                 (A) (A) (A) (A) (A) (A) (A) (A) (A) (A) (A) (A)
                 (A) (A) (A) (A) (A) (A) (A) (A) (A) (A) (A) (A)
                 (A) (A) (A) (A) (A) (A) (A) (A) (A) (A) (A) (A)
                 (A) (A)
 The electronic state is 1-A.
 Alpha  occ. eigenvalues --  -49.08649 -20.50163 -20.50162 -11.25594 -11.25495
 Alpha  occ. eigenvalues --  -11.19860 -11.19748 -11.19488 -11.19484  -3.81858
 Alpha  occ. eigenvalues --   -2.34175  -2.34145  -2.33979  -1.31205  -1.27457
 Alpha  occ. eigenvalues --   -1.09075  -0.96565  -0.93966  -0.79015  -0.76474
 Alpha  occ. eigenvalues --   -0.75769  -0.65013  -0.62990  -0.60688  -0.59089
 Alpha  occ. eigenvalues --   -0.56017  -0.55056  -0.54000  -0.49495  -0.49337
 Alpha  occ. eigenvalues --   -0.47491  -0.44618  -0.42145  -0.41710  -0.28692
 Alpha  occ. eigenvalues --   -0.25073
 Alpha virt. eigenvalues --    0.00057   0.00561   0.02249   0.02442   0.04752
 Alpha virt. eigenvalues --    0.05619   0.06826   0.09983   0.10337   0.10916
 Alpha virt. eigenvalues --    0.12517   0.13661   0.14156   0.14599   0.15999
 Alpha virt. eigenvalues --    0.16109   0.16680   0.16988   0.17642   0.18199
 Alpha virt. eigenvalues --    0.19251   0.20473   0.20685   0.21036   0.21633
 Alpha virt. eigenvalues --    0.23288   0.24117   0.24379   0.24596   0.25163
 Alpha virt. eigenvalues --    0.25904   0.26395   0.27748   0.28799   0.29103
 Alpha virt. eigenvalues --    0.30832   0.31245   0.32508   0.32992   0.34093
 Alpha virt. eigenvalues --    0.36771   0.37208   0.37646   0.37875   0.38679
 Alpha virt. eigenvalues --    0.38879   0.40115   0.43201   0.44139   0.44538
 Alpha virt. eigenvalues --    0.46661   0.47446   0.47691   0.48322   0.50684
 Alpha virt. eigenvalues --    0.53795   0.54222   0.54522   0.54963   0.56020
 Alpha virt. eigenvalues --    0.58215   0.58425   0.59966   0.63045   0.65632
 Alpha virt. eigenvalues --    0.65923   0.71454   0.72258   0.74236   0.75628
 Alpha virt. eigenvalues --    0.76246   0.76384   0.77059   0.79169   0.79957
 Alpha virt. eigenvalues --    0.82382   0.83177   0.83391   0.86670   0.87113
 Alpha virt. eigenvalues --    0.89093   0.89832   0.92826   0.93959   0.95447
 Alpha virt. eigenvalues --    0.96835   0.98375   1.02186   1.03027   1.04157
 Alpha virt. eigenvalues --    1.05841   1.10456   1.11703   1.13675   1.16494
 Alpha virt. eigenvalues --    1.17793   1.21334   1.21936   1.27016   1.27303
 Alpha virt. eigenvalues --    1.29046   1.29651   1.32108   1.36982   1.37432
 Alpha virt. eigenvalues --    1.40435   1.41223   1.42915   1.43287   1.46710
 Alpha virt. eigenvalues --    1.51392   1.53609   1.54683   1.55990   1.58261
 Alpha virt. eigenvalues --    1.65080   1.71055   1.71436   1.75395   1.80023
 Alpha virt. eigenvalues --    1.83437   1.84020   1.86547   1.86724   1.91613
 Alpha virt. eigenvalues --    1.93233   1.94993   1.95131   1.96746   1.99235
 Alpha virt. eigenvalues --    2.01977   2.02739   2.05463   2.09688   2.11307
 Alpha virt. eigenvalues --    2.12714   2.15486   2.17937   2.18618   2.21174
 Alpha virt. eigenvalues --    2.21364   2.23267   2.26705   2.28670   2.29806
 Alpha virt. eigenvalues --    2.29956   2.34650   2.36952   2.37920   2.38376
 Alpha virt. eigenvalues --    2.50269   2.56520   2.58265   2.65491   2.66591
 Alpha virt. eigenvalues --    2.79108   2.80291   2.80738   2.90450   2.93492
 Alpha virt. eigenvalues --    2.94451   3.03047   3.05400   3.07808   3.09080
 Alpha virt. eigenvalues --    3.09891   3.11694   3.17834   3.18556   3.19468
 Alpha virt. eigenvalues --    3.23252   3.29820   3.30039   3.34092   3.35910
 Alpha virt. eigenvalues --    3.43578   3.46386   3.50678   3.51104   3.51182
 Alpha virt. eigenvalues --    3.58531   3.61153   3.61775   3.66164   3.69690
 Alpha virt. eigenvalues --    3.70636   3.82859   3.84174   3.88040   3.94148
 Alpha virt. eigenvalues --    3.96881   3.99304   4.07795   4.18178   4.47626
 Alpha virt. eigenvalues --    4.49985   4.60482   4.68748   4.68870   5.29387
 Alpha virt. eigenvalues --    5.64942   5.68348   5.78282   5.90239   6.21155
 Alpha virt. eigenvalues --    6.36069   6.40989   6.64081   6.71996  24.78350
 Alpha virt. eigenvalues --   25.06577  25.11804  25.21621  25.27438  25.36685
 Alpha virt. eigenvalues --   51.71242  51.77409 105.78995
          Condensed to atoms (all electrons):
               1          2          3          4          5          6
     1  C   23.085241  -0.589523   1.321542  -7.254583 -10.521990   0.866314
     2  C   -0.589523   5.689945   0.290469   1.321877  -0.707146  -0.239526
     3  C    1.321542   0.290469   5.688175  -0.587964  -0.238702  -0.706527
     4  C   -7.254583   1.321877  -0.587964  23.077032   0.870383 -10.519230
     5  C  -10.521990  -0.707146  -0.238702   0.870383  22.265187  -6.679184
     6  C    0.866314  -0.239526  -0.706527 -10.519230  -6.679184  22.264561
     7  O   -1.100809   0.043297  -0.033784   0.266094   0.463238   0.361947
     8  O    0.265955  -0.033713   0.043234  -1.100577   0.361961   0.463086
     9  H   -0.031735   0.007778   0.398878  -0.033949   0.005011   0.020302
    10  H   -0.034070   0.399004   0.007701  -0.031662   0.020216   0.005103
    11  Mg   0.111016  -0.010193  -0.010173   0.111009  -0.155648  -0.156322
    12  H    0.317818  -0.010573  -0.004307  -0.006640   0.027487   0.047533
    13  H   -0.006608  -0.004308  -0.010643   0.317863   0.047452   0.027560
    14  H    0.000099   0.000187   0.000184   0.000142  -0.001874  -0.001952
    15  H    0.000368   0.000175   0.000173   0.000400  -0.001819  -0.001879
    16  H    0.065624   0.004391   0.003981   0.065495  -0.076582  -0.074971
    17  H    0.029770   0.003237   0.003051   0.029709  -0.039146  -0.038006
               7          8          9         10         11         12
     1  C   -1.100809   0.265955  -0.031735  -0.034070   0.111016   0.317818
     2  C    0.043297  -0.033713   0.007778   0.399004  -0.010193  -0.010573
     3  C   -0.033784   0.043234   0.398878   0.007701  -0.010173  -0.004307
     4  C    0.266094  -1.100577  -0.033949  -0.031662   0.111009  -0.006640
     5  C    0.463238   0.361961   0.005011   0.020216  -0.155648   0.027487
     6  C    0.361947   0.463086   0.020302   0.005103  -0.156322   0.047533
     7  O    8.306874  -0.001475   0.000061  -0.000401   0.196116  -0.004324
     8  O   -0.001475   8.306983  -0.000400   0.000062   0.196007  -0.000260
     9  H    0.000061  -0.000400   0.522188  -0.005043   0.000412  -0.000140
    10  H   -0.000401   0.000062  -0.005043   0.522181   0.000411  -0.004908
    11  Mg   0.196116   0.196007   0.000412   0.000411  10.574980   0.001453
    12  H   -0.004324  -0.000260  -0.000140  -0.004908   0.001453   0.509598
    13  H   -0.000261  -0.004311  -0.004911  -0.000140   0.001458   0.000019
    14  H    0.002970   0.002943  -0.000000  -0.000000   0.040295   0.000000
    15  H    0.002889   0.002921  -0.000000  -0.000000   0.041365  -0.000000
    16  H   -0.001816  -0.001730  -0.000021  -0.000022  -0.001027  -0.000122
    17  H    0.000748   0.000800  -0.000001  -0.000001   0.000714  -0.000012
              13         14         15         16         17
     1  C   -0.006608   0.000099   0.000368   0.065624   0.029770
     2  C   -0.004308   0.000187   0.000175   0.004391   0.003237
     3  C   -0.010643   0.000184   0.000173   0.003981   0.003051
     4  C    0.317863   0.000142   0.000400   0.065495   0.029709
     5  C    0.047452  -0.001874  -0.001819  -0.076582  -0.039146
     6  C    0.027560  -0.001952  -0.001879  -0.074971  -0.038006
     7  O   -0.000261   0.002970   0.002889  -0.001816   0.000748
     8  O   -0.004311   0.002943   0.002921  -0.001730   0.000800
     9  H   -0.004911  -0.000000  -0.000000  -0.000021  -0.000001
    10  H   -0.000140  -0.000000  -0.000000  -0.000022  -0.000001
    11  Mg   0.001458   0.040295   0.041365  -0.001027   0.000714
    12  H    0.000019   0.000000  -0.000000  -0.000122  -0.000012
    13  H    0.509593   0.000000  -0.000000  -0.000121  -0.000012
    14  H    0.000000   0.526999   0.370493  -0.000067  -0.000040
    15  H   -0.000000   0.370493   0.529123   0.000022   0.000024
    16  H   -0.000121  -0.000067   0.000022   0.574934   0.426650
    17  H   -0.000012  -0.000040   0.000024   0.426650   0.608278
 Mulliken charges:
               1
     1  C   -0.524429
     2  C   -0.165378
     3  C   -0.165287
     4  C   -0.525399
     5  C    0.361154
     6  C    0.361190
     7  O   -0.501363
     8  O   -0.501486
     9  H    0.121570
    10  H    0.121570
    11  Mg   1.058125
    12  H    0.127378
    13  H    0.127370
    14  H    0.059622
    15  H    0.055745
    16  H    0.015383
    17  H   -0.025764
 Sum of Mulliken charges =  -0.00000
 Mulliken charges with hydrogens summed into heavy atoms:
               1
     1  C   -0.397052
     2  C   -0.043808
     3  C   -0.043717
     4  C   -0.398029
     5  C    0.361154
     6  C    0.376574
     7  O   -0.501363
     8  O   -0.501486
    11  Mg   1.147727
         Mulliken charges condensed to fragments:
      1     -0.104986
      2      0.115367
      3     -0.010381
 Electronic spatial extent (au):  <R**2>=           1366.2861
 Charge=              0.0000 electrons
 Dipole moment (field-independent basis, Debye):
    X=              9.6870    Y=              0.0007    Z=             -0.3443  Tot=              9.6932
 Quadrupole moment (field-independent basis, Debye-Ang):
   XX=            -19.0427   YY=            -67.9582   ZZ=            -60.5599
   XY=              0.0013   XZ=             -1.8641   YZ=              0.0263
 Traceless Quadrupole moment (field-independent basis, Debye-Ang):
   XX=             30.1442   YY=            -18.7713   ZZ=            -11.3730
   XY=              0.0013   XZ=             -1.8641   YZ=              0.0263
 Octapole moment (field-independent basis, Debye-Ang**2):
  XXX=            172.7570  YYY=             -0.0003  ZZZ=             -5.1250  XYY=             -9.8664
  XXY=              0.0072  XXZ=             -6.5792  XZZ=             26.8485  YZZ=             -0.0177
  YYZ=             -0.4049  XYZ=              0.1242
 Hexadecapole moment (field-independent basis, Debye-Ang**3):
 XXXX=           -650.4204 YYYY=           -473.6006 ZZZZ=           -172.6252 XXXY=              0.0175
 XXXZ=            -28.2075 YYYX=              0.0061 YYYZ=              0.0077 ZZZX=             -7.0256
 ZZZY=             -0.0357 XXYY=           -284.8644 XXZZ=           -225.7831 YYZZ=           -116.7698
 XXYZ=              0.5867 YYXZ=             -0.9105 ZZXY=             -0.0659
 N-N= 4.865878634923D+02 E-N=-2.349122013376D+03  KE= 5.805044568945D+02
 CPIOFr:  IOpCl= 0 IRwI=-1 IRwCP=  731 ICalc= -1 LCPTot=      101349 Len1MO=      263944 IndFrg=      101349
 CPIOFr:  IOpCl= 0 IRwI=-1 IRwCP=  731 ICalc=  0 LCPTot=      101349 Len1MO=      263944 IndFrg=      365293
 Counterpoise: doing calculation for fragment   1 using the basis set of the full-system, NewBq=T
 Basis read from rwf:  (5D, 7F)
 There are   263 symmetry adapted cartesian basis functions of A   symmetry.
 There are   254 symmetry adapted basis functions of A   symmetry.
   254 basis functions,   402 primitive gaussians,   263 cartesian basis functions
    34 alpha electrons       34 beta electrons
       nuclear repulsion energy       447.3503058237 Hartrees.
 NAtoms=   17 NActive=   17 NUniq=   17 SFac= 1.00D+00 NAtFMM=   60 NAOKFM=F Big=F
 Integral buffers will be    131072 words long.
 Raffenetti 1 integral format.
 Two-electron integral symmetry is turned on.
 One-electron integrals computed using PRISM.
 NBasis=   254 RedAO= T EigKep=  1.60D-06  NBF=   254
 NBsUse=   254 1.00D-06 EigRej= -1.00D+00 NBFU=   254
 ExpMin= 1.46D-02 ExpMax= 4.39D+04 ExpMxC= 1.51D+03 IAcc=3 IRadAn=         5 AccDes= 0.00D+00
 Harris functional with IExCor=  205 and IRadAn=       5 diagonalized for initial guess.
 HarFok:  IExCor=  205 AccDes= 0.00D+00 IRadAn=         5 IDoV= 1 UseB2=F ITyADJ=14
 ICtDFT=  3500011 ScaDFX=  1.000000  1.000000  1.000000  1.000000
 FoFCou: FMM=F IPFlag=           0 FMFlag=      100000 FMFlg1=           0
         NFxFlg=           0 DoJE=T BraDBF=F KetDBF=T FulRan=T
         wScrn=  0.000000 ICntrl=       500 IOpCl=  0 I1Cent=   200000004 NGrid=           0
         NMat0=    1 NMatS0=      1 NMatT0=    0 NMatD0=    1 NMtDS0=    0 NMtDT0=    0
 Petite list used in FoFCou.
 Requested convergence on RMS density matrix=1.00D-08 within 128 cycles.
 Requested convergence on MAX density matrix=1.00D-06.
 Requested convergence on             energy=1.00D-06.
 No special actions if energy rises.
 SCF Done:  E(RHF) =  -578.984633725     A.U. after   15 cycles
            NFock= 15  Conv=0.73D-08     -V/T= 2.0013
 ExpMin= 1.46D-02 ExpMax= 4.39D+04 ExpMxC= 1.51D+03 IAcc=3 IRadAn=         5 AccDes= 0.00D+00
 HarFok:  IExCor=  205 AccDes= 0.00D+00 IRadAn=         5 IDoV=-2 UseB2=F ITyADJ=14
 ICtDFT= 12500011 ScaDFX=  1.000000  1.000000  1.000000  1.000000
 Range of M.O.s used for correlation:    14   254
 NBasis=   254 NAE=    34 NBE=    34 NFC=    13 NFV=     0
 NROrb=    241 NOA=    21 NOB=    21 NVA=   220 NVB=   220

 **** Warning!!: The largest alpha MO coefficient is  0.20167276D+03

 Fully in-core method, ICMem=  1240484174.
 JobTyp=1 Pass  1 fully in-core, NPsUse= 16.
 Spin components of T(2) and E(2):
     alpha-alpha T2 =       0.6103258886D-01 E2=     -0.1716160852D+00
     alpha-beta  T2 =       0.3051907504D+00 E2=     -0.9073351580D+00
     beta-beta   T2 =       0.6103258886D-01 E2=     -0.1716160852D+00
 ANorm=    0.1194678169D+01
 E2 =    -0.1250567328D+01 EUMP2 =    -0.58023520105341D+03

 **********************************************************************

            Population analysis using the SCF Density.

 **********************************************************************

 Orbital symmetries:
       Occupied  (A) (A) (A) (A) (A) (A) (A) (A) (A) (A) (A) (A)
                 (A) (A) (A) (A) (A) (A) (A) (A) (A) (A) (A) (A)
                 (A) (A) (A) (A) (A) (A) (A) (A) (A) (A)
       Virtual   (A) (A) (A) (A) (A) (A) (A) (A) (A) (A) (A) (A)
                 (A) (A) (A) (A) (A) (A) (A) (A) (A) (A) (A) (A)
                 (A) (A) (A) (A) (A) (A) (A) (A) (A) (A) (A) (A)
                 (A) (A) (A) (A) (A) (A) (A) (A) (A) (A) (A) (A)
                 (A) (A) (A) (A) (A) (A) (A) (A) (A) (A) (A) (A)
                 (A) (A) (A) (A) (A) (A) (A) (A) (A) (A) (A) (A)
                 (A) (A) (A) (A) (A) (A) (A) (A) (A) (A) (A) (A)
                 (A) (A) (A) (A) (A) (A) (A) (A) (A) (A) (A) (A)
                 (A) (A) (A) (A) (A) (A) (A) (A) (A) (A) (A) (A)
                 (A) (A) (A) (A) (A) (A) (A) (A) (A) (A) (A) (A)
                 (A) (A) (A) (A) (A) (A) (A) (A) (A) (A) (A) (A)
                 (A) (A) (A) (A) (A) (A) (A) (A) (A) (A) (A) (A)
                 (A) (A) (A) (A) (A) (A) (A) (A) (A) (A) (A) (A)
                 (A) (A) (A) (A) (A) (A) (A) (A) (A) (A) (A) (A)
                 (A) (A) (A) (A) (A) (A) (A) (A) (A) (A) (A) (A)
                 (A) (A) (A) (A) (A) (A) (A) (A) (A) (A) (A) (A)
                 (A) (A) (A) (A) (A) (A) (A) (A) (A) (A) (A) (A)
                 (A) (A) (A) (A) (A) (A) (A) (A) (A) (A) (A) (A)
                 (A) (A) (A) (A)
 The electronic state is 1-A.
 Alpha  occ. eigenvalues --  -49.10371 -20.50781 -20.50780 -11.25875 -11.25775
 Alpha  occ. eigenvalues --  -11.20021 -11.19910 -11.19684 -11.19680  -3.83484
 Alpha  occ. eigenvalues --   -2.35764  -2.35740  -2.35578  -1.31693  -1.27977
 Alpha  occ. eigenvalues --   -1.09262  -0.96760  -0.94182  -0.79243  -0.76710
 Alpha  occ. eigenvalues --   -0.65305  -0.63264  -0.61043  -0.56389  -0.55283
 Alpha  occ. eigenvalues --   -0.54937  -0.49813  -0.49606  -0.47994  -0.44980
 Alpha  occ. eigenvalues --   -0.42399  -0.42094  -0.28892  -0.25336
 Alpha virt. eigenvalues --   -0.05751   0.01549   0.01852   0.02381   0.04312
 Alpha virt. eigenvalues --    0.06291   0.07329   0.08686   0.10369   0.10842
 Alpha virt. eigenvalues --    0.12259   0.13563   0.14325   0.14858   0.15774
 Alpha virt. eigenvalues --    0.15962   0.16399   0.16731   0.16822   0.17785
 Alpha virt. eigenvalues --    0.18216   0.20518   0.20879   0.20899   0.21410
 Alpha virt. eigenvalues --    0.22204   0.23333   0.24131   0.24479   0.25327
 Alpha virt. eigenvalues --    0.25834   0.25991   0.26880   0.28931   0.29352
 Alpha virt. eigenvalues --    0.29975   0.30803   0.31089   0.32380   0.32461
 Alpha virt. eigenvalues --    0.33999   0.36734   0.36876   0.37513   0.38756
 Alpha virt. eigenvalues --    0.38779   0.39617   0.40796   0.43230   0.43903
 Alpha virt. eigenvalues --    0.44722   0.45991   0.47549   0.47590   0.50510
 Alpha virt. eigenvalues --    0.51503   0.53558   0.53645   0.54474   0.55118
 Alpha virt. eigenvalues --    0.58003   0.58228   0.59107   0.65283   0.65391
 Alpha virt. eigenvalues --    0.71477   0.73482   0.74052   0.74793   0.76239
 Alpha virt. eigenvalues --    0.76873   0.78443   0.78553   0.79835   0.81493
 Alpha virt. eigenvalues --    0.82094   0.83167   0.85143   0.86200   0.86625
 Alpha virt. eigenvalues --    0.89261   0.90000   0.90547   0.92890   0.94438
 Alpha virt. eigenvalues --    0.95271   0.96667   0.98445   1.01922   1.02901
 Alpha virt. eigenvalues --    1.03023   1.05708   1.06061   1.11569   1.11698
 Alpha virt. eigenvalues --    1.13549   1.16275   1.19325   1.22114   1.22625
 Alpha virt. eigenvalues --    1.27046   1.27385   1.29027   1.30135   1.37263
 Alpha virt. eigenvalues --    1.38940   1.41261   1.41317   1.46508   1.49052
 Alpha virt. eigenvalues --    1.52309   1.52957   1.54769   1.56882   1.62548
 Alpha virt. eigenvalues --    1.71119   1.73554   1.76469   1.79344   1.82036
 Alpha virt. eigenvalues --    1.83302   1.83960   1.86504   1.89541   1.91806
 Alpha virt. eigenvalues --    1.95117   1.95175   1.97628   1.99466   2.03823
 Alpha virt. eigenvalues --    2.05367   2.09695   2.12330   2.16800   2.18103
 Alpha virt. eigenvalues --    2.20365   2.22730   2.24029   2.24619   2.26111
 Alpha virt. eigenvalues --    2.28111   2.28571   2.29794   2.31074   2.36043
 Alpha virt. eigenvalues --    2.36666   2.37422   2.40759   2.42656   2.47224
 Alpha virt. eigenvalues --    2.51671   2.56561   2.58140   2.65294   2.66704
 Alpha virt. eigenvalues --    2.71127   2.79272   2.80587   2.85128   2.90065
 Alpha virt. eigenvalues --    2.94305   3.02928   3.05237   3.08054   3.08276
 Alpha virt. eigenvalues --    3.09712   3.11527   3.17638   3.18348   3.19320
 Alpha virt. eigenvalues --    3.23035   3.29612   3.29892   3.33585   3.35688
 Alpha virt. eigenvalues --    3.42421   3.45894   3.50643   3.51055   3.58226
 Alpha virt. eigenvalues --    3.60814   3.61638   3.65685   3.69521   3.81859
 Alpha virt. eigenvalues --    3.83977   3.85478   3.87575   3.96158   3.99066
 Alpha virt. eigenvalues --    4.07566   4.14767   4.20851   4.22956   4.47460
 Alpha virt. eigenvalues --    4.49966   4.60295   4.68315   4.68899   4.88565
 Alpha virt. eigenvalues --    5.09932   5.29197   5.64574   5.67798   5.77791
 Alpha virt. eigenvalues --    5.89655   6.20637   6.35531   6.39527   6.62598
 Alpha virt. eigenvalues --    6.70785  24.78127  25.06326  25.11589  25.21421
 Alpha virt. eigenvalues --   25.27244  25.36503  51.70627  51.76794 105.77298
          Condensed to atoms (all electrons):
               1          2          3          4          5          6
     1  C   22.527427  -0.578205   1.280110  -7.401313 -10.250831   1.338261
     2  C   -0.578205   5.653011   0.287630   1.279164  -0.670844  -0.205593
     3  C    1.280110   0.287630   5.653151  -0.576300  -0.206038  -0.672481
     4  C   -7.401313   1.279164  -0.576300  22.524961   1.341299 -10.251709
     5  C  -10.250831  -0.670844  -0.206038   1.341299  21.730729  -6.982231
     6  C    1.338261  -0.205593  -0.672481 -10.251709  -6.982231  21.733312
     7  O   -1.100611   0.043544  -0.034550   0.269638   0.473469   0.350096
     8  O    0.269536  -0.034523   0.043505  -1.100771   0.350252   0.473475
     9  H   -0.031614   0.008362   0.398469  -0.033942   0.004676   0.020394
    10  H   -0.034066   0.398607   0.008281  -0.031533   0.020296   0.004765
    11  Mg   0.125097  -0.011122  -0.011172   0.125192  -0.163943  -0.164131
    12  H    0.319935  -0.008641  -0.004297  -0.005791   0.026263   0.043569
    13  H   -0.005777  -0.004282  -0.008768   0.320030   0.043457   0.026381
    14  H   -0.000089   0.000017   0.000016  -0.000053  -0.000160  -0.000270
    15  H    0.000111  -0.000006  -0.000005   0.000074  -0.000181  -0.000059
    16  H    0.006826  -0.000679  -0.000657   0.006799  -0.007397  -0.007548
    17  H   -0.003288   0.000489   0.000484  -0.003275   0.003077   0.003089
               7          8          9         10         11         12
     1  C   -1.100611   0.269536  -0.031614  -0.034066   0.125097   0.319935
     2  C    0.043544  -0.034523   0.008362   0.398607  -0.011122  -0.008641
     3  C   -0.034550   0.043505   0.398469   0.008281  -0.011172  -0.004297
     4  C    0.269638  -1.100771  -0.033942  -0.031533   0.125192  -0.005791
     5  C    0.473469   0.350252   0.004676   0.020296  -0.163943   0.026263
     6  C    0.350096   0.473475   0.020394   0.004765  -0.164131   0.043569
     7  O    8.301932  -0.004672   0.000063  -0.000414   0.191907  -0.004258
     8  O   -0.004672   8.302137  -0.000413   0.000063   0.191824  -0.000237
     9  H    0.000063  -0.000413   0.521648  -0.005032   0.000393  -0.000142
    10  H   -0.000414   0.000063  -0.005032   0.521641   0.000391  -0.004887
    11  Mg   0.191907   0.191824   0.000393   0.000391  10.583603   0.001487
    12  H   -0.004258  -0.000237  -0.000142  -0.004887   0.001487   0.509550
    13  H   -0.000239  -0.004245  -0.004889  -0.000142   0.001490   0.000019
    14  H    0.000021   0.000019   0.000000   0.000000  -0.000765   0.000000
    15  H   -0.000025  -0.000020   0.000000   0.000000   0.000249  -0.000000
    16  H    0.000110   0.000112  -0.000014  -0.000014  -0.000123  -0.000052
    17  H   -0.000022  -0.000025   0.000001   0.000001  -0.000550   0.000011
              13         14         15         16         17
     1  C   -0.005777  -0.000089   0.000111   0.006826  -0.003288
     2  C   -0.004282   0.000017  -0.000006  -0.000679   0.000489
     3  C   -0.008768   0.000016  -0.000005  -0.000657   0.000484
     4  C    0.320030  -0.000053   0.000074   0.006799  -0.003275
     5  C    0.043457  -0.000160  -0.000181  -0.007397   0.003077
     6  C    0.026381  -0.000270  -0.000059  -0.007548   0.003089
     7  O   -0.000239   0.000021  -0.000025   0.000110  -0.000022
     8  O   -0.004245   0.000019  -0.000020   0.000112  -0.000025
     9  H   -0.004889   0.000000   0.000000  -0.000014   0.000001
    10  H   -0.000142   0.000000   0.000000  -0.000014   0.000001
    11  Mg   0.001490  -0.000765   0.000249  -0.000123  -0.000550
    12  H    0.000019   0.000000  -0.000000  -0.000052   0.000011
    13  H    0.509540   0.000000  -0.000000  -0.000052   0.000011
    14  H    0.000000   0.000227  -0.000047  -0.000004   0.000004
    15  H   -0.000000  -0.000047   0.000180   0.000001  -0.000000
    16  H   -0.000052  -0.000004   0.000001   0.002197  -0.000889
    17  H    0.000011   0.000004  -0.000000  -0.000889   0.000768
 Mulliken charges:
               1
     1  C   -0.461507
     2  C   -0.156928
     3  C   -0.157378
     4  C   -0.462469
     5  C    0.288106
     6  C    0.290681
     7  O   -0.485992
     8  O   -0.486017
     9  H    0.122042
    10  H    0.122042
    11  Mg   1.130174
    12  H    0.127471
    13  H    0.127467
    14  H    0.001083
    15  H   -0.000272
    16  H    0.001384
    17  H    0.000114
 Sum of Mulliken charges =  -0.00000
 Mulliken charges with hydrogens summed into heavy atoms:
               1
     1  C   -0.334036
     2  C   -0.034886
     3  C   -0.035336
     4  C   -0.335002
     5  C    0.288106
     6  C    0.292065
     7  O   -0.485992
     8  O   -0.486017
    11  Mg   1.131099
         Mulliken charges condensed to fragments:
      1     -0.002309
      2      0.000811
      3      0.001498
 Electronic spatial extent (au):  <R**2>=           1149.0085
 Charge=             -0.0000 electrons
 Dipole moment (field-independent basis, Debye):
    X=              8.9516    Y=              0.0008    Z=             -0.1990  Tot=              8.9538
 Quadrupole moment (field-independent basis, Debye-Ang):
   XX=            -20.9965   YY=            -63.7590   ZZ=            -56.8748
   XY=              0.0037   XZ=             -1.5710   YZ=              0.0004
 Traceless Quadrupole moment (field-independent basis, Debye-Ang):
   XX=             26.2136   YY=            -16.5489   ZZ=             -9.6647
   XY=              0.0037   XZ=             -1.5710   YZ=              0.0004
 Octapole moment (field-independent basis, Debye-Ang**2):
  XXX=            165.7441  YYY=             -0.0055  ZZZ=             12.0711  XYY=              0.4736
  XXY=              0.0126  XXZ=             -0.4516  XZZ=             34.0801  YZZ=              0.0000
  YYZ=              5.3570  XYZ=              0.0022
 Hexadecapole moment (field-independent basis, Debye-Ang**3):
 XXXX=           -616.6385 YYYY=           -468.6125 ZZZZ=            -69.7420 XXXY=              0.0226
 XXXZ=            -12.4864 YYYX=             -0.0066 YYYZ=              0.0151 ZZZX=              2.2957
 ZZZY=              0.0184 XXYY=           -243.4028 XXZZ=           -182.8471 YYZZ=            -97.6232
 XXYZ=              0.0036 YYXZ=              3.2418 ZZXY=             -0.0024
 N-N= 4.473503058237D+02 E-N=-2.266166840752D+03  KE= 5.782290434812D+02
 CPIOFr:  IOpCl= 0 IRwI=-1 IRwCP=  731 ICalc=  1 LCPTot=      101349 Len1MO=      263944 IndFrg=      629237
 Counterpoise: doing calculation for fragment   2 using the basis set of the full-system, NewBq=T
 Basis read from rwf:  (5D, 7F)
 There are   263 symmetry adapted cartesian basis functions of A   symmetry.
 There are   254 symmetry adapted basis functions of A   symmetry.
   254 basis functions,   402 primitive gaussians,   263 cartesian basis functions
     1 alpha electrons        1 beta electrons
       nuclear repulsion energy         0.7081891140 Hartrees.
 NAtoms=   17 NActive=   17 NUniq=   17 SFac= 1.00D+00 NAtFMM=   60 NAOKFM=F Big=F
 Integral buffers will be    131072 words long.
 Raffenetti 1 integral format.
 Two-electron integral symmetry is turned on.
 One-electron integrals computed using PRISM.
 NBasis=   254 RedAO= T EigKep=  1.60D-06  NBF=   254
 NBsUse=   254 1.00D-06 EigRej= -1.00D+00 NBFU=   254
 ExpMin= 1.46D-02 ExpMax= 4.39D+04 ExpMxC= 1.51D+03 IAcc=3 IRadAn=         5 AccDes= 0.00D+00
 Harris functional with IExCor=  205 and IRadAn=       5 diagonalized for initial guess.
 HarFok:  IExCor=  205 AccDes= 0.00D+00 IRadAn=         5 IDoV= 1 UseB2=F ITyADJ=14
 ICtDFT=  3500011 ScaDFX=  1.000000  1.000000  1.000000  1.000000
 FoFCou: FMM=F IPFlag=           0 FMFlag=      100000 FMFlg1=           0
         NFxFlg=           0 DoJE=T BraDBF=F KetDBF=T FulRan=T
         wScrn=  0.000000 ICntrl=       500 IOpCl=  0 I1Cent=   200000004 NGrid=           0
         NMat0=    1 NMatS0=      1 NMatT0=    0 NMatD0=    1 NMtDS0=    0 NMtDT0=    0
 Petite list used in FoFCou.
 Requested convergence on RMS density matrix=1.00D-08 within 128 cycles.
 Requested convergence on MAX density matrix=1.00D-06.
 Requested convergence on             energy=1.00D-06.
 No special actions if energy rises.
 SCF Done:  E(RHF) =  -1.13245447799     A.U. after    7 cycles
            NFock=  7  Conv=0.98D-09     -V/T= 2.0146
 Range of M.O.s used for correlation:     1   254
 NBasis=   254 NAE=     1 NBE=     1 NFC=     0 NFV=     0
 NROrb=    254 NOA=     1 NOB=     1 NVA=   253 NVB=   253

 **** Warning!!: The largest alpha MO coefficient is  0.17502526D+03

 Fully in-core method, ICMem=  1239335653.
 JobTyp=1 Pass  1 fully in-core, NPsUse= 16.
 Spin components of T(2) and E(2):
     alpha-alpha T2 =       0.0000000000D+00 E2=      0.0000000000D+00
     alpha-beta  T2 =       0.9551845817D-02 E2=     -0.2834456191D-01
     beta-beta   T2 =       0.0000000000D+00 E2=      0.0000000000D+00
 ANorm=    0.1004764572D+01
 E2 =    -0.2834456191D-01 EUMP2 =    -0.11607990399072D+01

 **********************************************************************

            Population analysis using the SCF Density.

 **********************************************************************

 Orbital symmetries:
       Occupied  (A)
       Virtual   (A) (A) (A) (A) (A) (A) (A) (A) (A) (A) (A) (A)
                 (A) (A) (A) (A) (A) (A) (A) (A) (A) (A) (A) (A)
                 (A) (A) (A) (A) (A) (A) (A) (A) (A) (A) (A) (A)
                 (A) (A) (A) (A) (A) (A) (A) (A) (A) (A) (A) (A)
                 (A) (A) (A) (A) (A) (A) (A) (A) (A) (A) (A) (A)
                 (A) (A) (A) (A) (A) (A) (A) (A) (A) (A) (A) (A)
                 (A) (A) (A) (A) (A) (A) (A) (A) (A) (A) (A) (A)
                 (A) (A) (A) (A) (A) (A) (A) (A) (A) (A) (A) (A)
                 (A) (A) (A) (A) (A) (A) (A) (A) (A) (A) (A) (A)
                 (A) (A) (A) (A) (A) (A) (A) (A) (A) (A) (A) (A)
                 (A) (A) (A) (A) (A) (A) (A) (A) (A) (A) (A) (A)
                 (A) (A) (A) (A) (A) (A) (A) (A) (A) (A) (A) (A)
                 (A) (A) (A) (A) (A) (A) (A) (A) (A) (A) (A) (A)
                 (A) (A) (A) (A) (A) (A) (A) (A) (A) (A) (A) (A)
                 (A) (A) (A) (A) (A) (A) (A) (A) (A) (A) (A) (A)
                 (A) (A) (A) (A) (A) (A) (A) (A) (A) (A) (A) (A)
                 (A) (A) (A) (A) (A) (A) (A) (A) (A) (A) (A) (A)
                 (A) (A) (A) (A) (A) (A) (A) (A) (A) (A) (A) (A)
                 (A) (A) (A) (A) (A) (A) (A) (A) (A) (A) (A) (A)
                 (A) (A) (A) (A) (A) (A) (A) (A) (A) (A) (A) (A)
                 (A) (A) (A) (A) (A) (A) (A) (A) (A) (A) (A) (A)
                 (A)
 The electronic state is 1-A.
 Alpha  occ. eigenvalues --   -0.59245
 Alpha virt. eigenvalues --    0.01970   0.02948   0.02978   0.03196   0.06136
 Alpha virt. eigenvalues --    0.07202   0.07892   0.09728   0.09872   0.10008
 Alpha virt. eigenvalues --    0.10741   0.11544   0.12081   0.12955   0.14242
 Alpha virt. eigenvalues --    0.14586   0.15147   0.16137   0.17016   0.17964
 Alpha virt. eigenvalues --    0.18476   0.18987   0.20445   0.21469   0.21662
 Alpha virt. eigenvalues --    0.22128   0.23817   0.24072   0.24282   0.24650
 Alpha virt. eigenvalues --    0.25652   0.26061   0.27152   0.27238   0.28661
 Alpha virt. eigenvalues --    0.29931   0.30456   0.31210   0.31596   0.31738
 Alpha virt. eigenvalues --    0.34967   0.35489   0.36133   0.36996   0.37839
 Alpha virt. eigenvalues --    0.38529   0.40656   0.43494   0.43637   0.44137
 Alpha virt. eigenvalues --    0.44166   0.47022   0.47063   0.47217   0.49346
 Alpha virt. eigenvalues --    0.49553   0.51315   0.53581   0.55669   0.57484
 Alpha virt. eigenvalues --    0.59695   0.59764   0.62410   0.63463   0.66631
 Alpha virt. eigenvalues --    0.68182   0.70876   0.73373   0.73803   0.75335
 Alpha virt. eigenvalues --    0.75736   0.78085   0.78858   0.79982   0.81340
 Alpha virt. eigenvalues --    0.81921   0.86572   0.90153   0.90684   0.92255
 Alpha virt. eigenvalues --    0.94938   0.96175   0.98224   0.99259   0.99914
 Alpha virt. eigenvalues --    1.01340   1.02109   1.04643   1.11064   1.11494
 Alpha virt. eigenvalues --    1.13226   1.15718   1.17691   1.19030   1.21824
 Alpha virt. eigenvalues --    1.22368   1.28039   1.30488   1.35755   1.39389
 Alpha virt. eigenvalues --    1.41573   1.42751   1.50270   1.51332   1.52456
 Alpha virt. eigenvalues --    1.53440   1.55569   1.57153   1.57279   1.69889
 Alpha virt. eigenvalues --    1.70538   1.71118   1.72418   1.72964   1.74756
 Alpha virt. eigenvalues --    1.76370   1.78945   1.79752   1.81108   1.85315
 Alpha virt. eigenvalues --    1.85879   1.87308   1.89909   1.92900   1.94730
 Alpha virt. eigenvalues --    1.98337   1.99626   2.02448   2.06075   2.07920
 Alpha virt. eigenvalues --    2.08238   2.09975   2.12089   2.18812   2.19322
 Alpha virt. eigenvalues --    2.29928   2.30964   2.31662   2.32027   2.36671
 Alpha virt. eigenvalues --    2.38051   2.39337   2.39650   2.41534   2.42909
 Alpha virt. eigenvalues --    2.44422   2.48222   2.51995   2.54467   2.57512
 Alpha virt. eigenvalues --    2.57524   2.60078   2.71718   2.73327   2.78696
 Alpha virt. eigenvalues --    2.82929   2.83861   2.87201   2.88322   2.93552
 Alpha virt. eigenvalues --    2.94266   2.96887   2.99413   2.99783   3.08941
 Alpha virt. eigenvalues --    3.11325   3.11504   3.13625   3.24730   3.30035
 Alpha virt. eigenvalues --    3.30387   3.33038   3.33776   3.35609   3.37209
 Alpha virt. eigenvalues --    3.47102   3.48378   3.49294   3.52991   3.54865
 Alpha virt. eigenvalues --    3.56890   3.65589   3.73104   3.78945   3.94880
 Alpha virt. eigenvalues --    4.02416   4.19917   4.20316   4.25830   4.36857
 Alpha virt. eigenvalues --    4.41266   4.60894   4.61062   4.63713   4.63891
 Alpha virt. eigenvalues --    4.82618   4.85261   4.87022   4.90879   4.92237
 Alpha virt. eigenvalues --    4.93594   5.06632   5.08999   5.33158   5.36196
 Alpha virt. eigenvalues --    5.62987   5.87036   7.03115   7.04033   7.09971
 Alpha virt. eigenvalues --    7.13682   7.21703   7.24335   7.36001   7.72419
 Alpha virt. eigenvalues --    7.73746   7.73757   7.75181   7.80169   7.83753
 Alpha virt. eigenvalues --    7.95590   7.97660   8.06804   8.15333   8.31698
 Alpha virt. eigenvalues --    8.92836   9.65977  10.12841  10.18983  10.21849
 Alpha virt. eigenvalues --   10.25234  10.29984  13.50310  13.53743  13.66993
 Alpha virt. eigenvalues --   13.77945  14.01363  14.12555  18.55563  18.67054
 Alpha virt. eigenvalues --   24.89865  25.10793  25.17644  42.01692  69.75032
 Alpha virt. eigenvalues --   69.92727  69.97694  70.00370  70.02416  70.06252
 Alpha virt. eigenvalues --  139.79043 139.81015 308.95268
          Condensed to atoms (all electrons):
               1          2          3          4          5          6
     1  C    0.004059   0.000881   0.000606   0.002328  -0.001830  -0.003858
     2  C    0.000881   0.000327   0.000192   0.000491  -0.000515  -0.001056
     3  C    0.000606   0.000192   0.000382   0.000874  -0.001080  -0.000626
     4  C    0.002328   0.000491   0.000874   0.003515  -0.003415  -0.001757
     5  C   -0.001830  -0.000515  -0.001080  -0.003415   0.003927   0.001723
     6  C   -0.003858  -0.001056  -0.000626  -0.001757   0.001723   0.004340
     7  O    0.000154   0.000039   0.000012   0.000012  -0.000047  -0.000229
     8  O    0.000016   0.000010   0.000042   0.000147  -0.000219  -0.000051
     9  H    0.000009   0.000006   0.000014   0.000015  -0.000028  -0.000014
    10  H    0.000017   0.000013   0.000007   0.000008  -0.000014  -0.000030
    11  Mg  -0.002333  -0.000376  -0.000410  -0.002174   0.001521   0.001585
    12  H   -0.000056  -0.000017  -0.000005  -0.000014   0.000011   0.000067
    13  H   -0.000016  -0.000004  -0.000017  -0.000052   0.000063   0.000012
    14  H   -0.000751  -0.000030  -0.000032  -0.000702  -0.000959  -0.001066
    15  H   -0.000730  -0.000029  -0.000032  -0.000696  -0.000988  -0.001097
    16  H    0.000054   0.000008   0.000009   0.000050  -0.000037  -0.000037
    17  H   -0.000005  -0.000001  -0.000001  -0.000005   0.000003   0.000003
               7          8          9         10         11         12
     1  C    0.000154   0.000016   0.000009   0.000017  -0.002333  -0.000056
     2  C    0.000039   0.000010   0.000006   0.000013  -0.000376  -0.000017
     3  C    0.000012   0.000042   0.000014   0.000007  -0.000410  -0.000005
     4  C    0.000012   0.000147   0.000015   0.000008  -0.002174  -0.000014
     5  C   -0.000047  -0.000219  -0.000028  -0.000014   0.001521   0.000011
     6  C   -0.000229  -0.000051  -0.000014  -0.000030   0.001585   0.000067
     7  O    0.000035   0.000012   0.000000   0.000001  -0.000020  -0.000004
     8  O    0.000012   0.000035   0.000001   0.000000  -0.000024  -0.000000
     9  H    0.000000   0.000001   0.000001   0.000000  -0.000003  -0.000000
    10  H    0.000001   0.000000   0.000000   0.000001  -0.000003  -0.000000
    11  Mg  -0.000020  -0.000024  -0.000003  -0.000003   0.002530   0.000018
    12  H   -0.000004  -0.000000  -0.000000  -0.000000   0.000018   0.000002
    13  H   -0.000000  -0.000004  -0.000000  -0.000000   0.000018   0.000000
    14  H    0.000613   0.000599  -0.000000  -0.000000  -0.006271   0.000000
    15  H    0.000607   0.000612  -0.000000  -0.000000  -0.006248   0.000000
    16  H   -0.000000   0.000000   0.000000   0.000000  -0.000053  -0.000000
    17  H    0.000000   0.000000  -0.000000  -0.000000   0.000006   0.000000
              13         14         15         16         17
     1  C   -0.000016  -0.000751  -0.000730   0.000054  -0.000005
     2  C   -0.000004  -0.000030  -0.000029   0.000008  -0.000001
     3  C   -0.000017  -0.000032  -0.000032   0.000009  -0.000001
     4  C   -0.000052  -0.000702  -0.000696   0.000050  -0.000005
     5  C    0.000063  -0.000959  -0.000988  -0.000037   0.000003
     6  C    0.000012  -0.001066  -0.001097  -0.000037   0.000003
     7  O   -0.000000   0.000613   0.000607  -0.000000   0.000000
     8  O   -0.000004   0.000599   0.000612   0.000000   0.000000
     9  H   -0.000000  -0.000000  -0.000000   0.000000  -0.000000
    10  H   -0.000000  -0.000000  -0.000000   0.000000  -0.000000
    11  Mg   0.000018  -0.006271  -0.006248  -0.000053   0.000006
    12  H    0.000000   0.000000   0.000000  -0.000000   0.000000
    13  H    0.000001   0.000000   0.000000  -0.000000   0.000000
    14  H    0.000000   0.590625   0.426427  -0.000015   0.000003
    15  H    0.000000   0.426427   0.590563  -0.000007   0.000001
    16  H   -0.000000  -0.000015  -0.000007   0.000007  -0.000001
    17  H    0.000000   0.000003   0.000001  -0.000001   0.000000
 Mulliken charges:
               1
     1  C    0.001457
     2  C    0.000061
     3  C    0.000065
     4  C    0.001374
     5  C    0.001883
     6  C    0.002093
     7  O   -0.001186
     8  O   -0.001177
     9  H    0.000000
    10  H    0.000000
    11  Mg   0.012237
    12  H   -0.000001
    13  H   -0.000001
    14  H   -0.008440
    15  H   -0.008383
    16  H    0.000022
    17  H   -0.000004
 Sum of Mulliken charges =  -0.00000
 Mulliken charges with hydrogens summed into heavy atoms:
               1
     1  C    0.001456
     2  C    0.000061
     3  C    0.000065
     4  C    0.001374
     5  C    0.001883
     6  C    0.002114
     7  O   -0.001186
     8  O   -0.001177
    11  Mg  -0.004590
         Mulliken charges condensed to fragments:
      1      0.016805
      2     -0.016823
      3      0.000018
 Electronic spatial extent (au):  <R**2>=            151.5851
 Charge=             -0.0000 electrons
 Dipole moment (field-independent basis, Debye):
    X=              0.0039    Y=             -0.0000    Z=             -0.0000  Tot=              0.0039
 Quadrupole moment (field-independent basis, Debye-Ang):
   XX=             -2.0649   YY=             -2.0775   ZZ=             -1.4750
   XY=             -0.0001   XZ=             -0.0004   YZ=              0.0269
 Traceless Quadrupole moment (field-independent basis, Debye-Ang):
   XX=             -0.1924   YY=             -0.2050   ZZ=              0.3974
   XY=             -0.0001   XZ=             -0.0004   YZ=              0.0269
 Octapole moment (field-independent basis, Debye-Ang**2):
  XXX=            -28.2701  YYY=              0.0016  ZZZ=              0.6233  XYY=             -9.4014
  XXY=              0.0001  XXZ=              0.2927  XZZ=             -6.6825  YZZ=             -0.0072
  YYZ=              0.2926  XYZ=              0.1216
 Hexadecapole moment (field-independent basis, Debye-Ang**3):
 XXXX=           -258.6893 YYYY=             -2.0460 ZZZZ=             -3.0487 XXXY=              0.0054
 XXXZ=              3.9955 YYYX=              0.0072 YYYZ=             -0.0215 ZZZX=              2.8245
 ZZZY=             -0.0150 XXYY=            -43.2438 XXZZ=            -31.1667 YYZZ=             -0.8792
 XXYZ=              0.5424 YYXZ=              1.3244 ZZXY=             -0.0326
 N-N= 7.081891140276D-01 E-N=-3.612526002579D+00  KE= 1.116131804358D+00
 CPIOFr:  IOpCl= 0 IRwI=-1 IRwCP=  731 ICalc=  2 LCPTot=      101349 Len1MO=      263944 IndFrg=      893181
 Counterpoise: doing calculation for fragment   3 using the basis set of the full-system, NewBq=T
 Basis read from rwf:  (5D, 7F)
 There are   263 symmetry adapted cartesian basis functions of A   symmetry.
 There are   254 symmetry adapted basis functions of A   symmetry.
   254 basis functions,   402 primitive gaussians,   263 cartesian basis functions
     1 alpha electrons        1 beta electrons
       nuclear repulsion energy         0.7136454695 Hartrees.
 NAtoms=   17 NActive=   17 NUniq=   17 SFac= 1.00D+00 NAtFMM=   60 NAOKFM=F Big=F
 Integral buffers will be    131072 words long.
 Raffenetti 1 integral format.
 Two-electron integral symmetry is turned on.
 One-electron integrals computed using PRISM.
 NBasis=   254 RedAO= T EigKep=  1.60D-06  NBF=   254
 NBsUse=   254 1.00D-06 EigRej= -1.00D+00 NBFU=   254
 ExpMin= 1.46D-02 ExpMax= 4.39D+04 ExpMxC= 1.51D+03 IAcc=3 IRadAn=         5 AccDes= 0.00D+00
 Harris functional with IExCor=  205 and IRadAn=       5 diagonalized for initial guess.
 HarFok:  IExCor=  205 AccDes= 0.00D+00 IRadAn=         5 IDoV= 1 UseB2=F ITyADJ=14
 ICtDFT=  3500011 ScaDFX=  1.000000  1.000000  1.000000  1.000000
 FoFCou: FMM=F IPFlag=           0 FMFlag=      100000 FMFlg1=           0
         NFxFlg=           0 DoJE=T BraDBF=F KetDBF=T FulRan=T
         wScrn=  0.000000 ICntrl=       500 IOpCl=  0 I1Cent=   200000004 NGrid=           0
         NMat0=    1 NMatS0=      1 NMatT0=    0 NMatD0=    1 NMtDS0=    0 NMtDT0=    0
 Petite list used in FoFCou.
 Requested convergence on RMS density matrix=1.00D-08 within 128 cycles.
 Requested convergence on MAX density matrix=1.00D-06.
 Requested convergence on             energy=1.00D-06.
 No special actions if energy rises.
 SCF Done:  E(RHF) =  -1.13256169700     A.U. after    7 cycles
            NFock=  7  Conv=0.42D-09     -V/T= 2.0095
 Range of M.O.s used for correlation:     1   254
 NBasis=   254 NAE=     1 NBE=     1 NFC=     0 NFV=     0
 NROrb=    254 NOA=     1 NOB=     1 NVA=   253 NVB=   253

 **** Warning!!: The largest alpha MO coefficient is  0.20212995D+03

 Fully in-core method, ICMem=  1239335653.
 JobTyp=1 Pass  1 fully in-core, NPsUse= 16.
 Spin components of T(2) and E(2):
     alpha-alpha T2 =       0.0000000000D+00 E2=      0.0000000000D+00
     alpha-beta  T2 =       0.9286045797D-02 E2=     -0.2805476632D-01
     beta-beta   T2 =       0.0000000000D+00 E2=      0.0000000000D+00
 ANorm=    0.1004632294D+01
 E2 =    -0.2805476632D-01 EUMP2 =    -0.11606164633172D+01

 **********************************************************************

            Population analysis using the SCF Density.

 **********************************************************************

 Orbital symmetries:
       Occupied  (A)
       Virtual   (A) (A) (A) (A) (A) (A) (A) (A) (A) (A) (A) (A)
                 (A) (A) (A) (A) (A) (A) (A) (A) (A) (A) (A) (A)
                 (A) (A) (A) (A) (A) (A) (A) (A) (A) (A) (A) (A)
                 (A) (A) (A) (A) (A) (A) (A) (A) (A) (A) (A) (A)
                 (A) (A) (A) (A) (A) (A) (A) (A) (A) (A) (A) (A)
                 (A) (A) (A) (A) (A) (A) (A) (A) (A) (A) (A) (A)
                 (A) (A) (A) (A) (A) (A) (A) (A) (A) (A) (A) (A)
                 (A) (A) (A) (A) (A) (A) (A) (A) (A) (A) (A) (A)
                 (A) (A) (A) (A) (A) (A) (A) (A) (A) (A) (A) (A)
                 (A) (A) (A) (A) (A) (A) (A) (A) (A) (A) (A) (A)
                 (A) (A) (A) (A) (A) (A) (A) (A) (A) (A) (A) (A)
                 (A) (A) (A) (A) (A) (A) (A) (A) (A) (A) (A) (A)
                 (A) (A) (A) (A) (A) (A) (A) (A) (A) (A) (A) (A)
                 (A) (A) (A) (A) (A) (A) (A) (A) (A) (A) (A) (A)
                 (A) (A) (A) (A) (A) (A) (A) (A) (A) (A) (A) (A)
                 (A) (A) (A) (A) (A) (A) (A) (A) (A) (A) (A) (A)
                 (A) (A) (A) (A) (A) (A) (A) (A) (A) (A) (A) (A)
                 (A) (A) (A) (A) (A) (A) (A) (A) (A) (A) (A) (A)
                 (A) (A) (A) (A) (A) (A) (A) (A) (A) (A) (A) (A)
                 (A) (A) (A) (A) (A) (A) (A) (A) (A) (A) (A) (A)
                 (A) (A) (A) (A) (A) (A) (A) (A) (A) (A) (A) (A)
                 (A)
 The electronic state is 1-A.
 Alpha  occ. eigenvalues --   -0.59420
 Alpha virt. eigenvalues --    0.01907   0.02807   0.02943   0.03584   0.06278
 Alpha virt. eigenvalues --    0.07181   0.07413   0.08984   0.09858   0.10043
 Alpha virt. eigenvalues --    0.10822   0.11752   0.12334   0.12761   0.12879
 Alpha virt. eigenvalues --    0.15216   0.15322   0.16689   0.16738   0.18060
 Alpha virt. eigenvalues --    0.18924   0.19627   0.20274   0.21276   0.21816
 Alpha virt. eigenvalues --    0.21891   0.23947   0.24104   0.24801   0.25536
 Alpha virt. eigenvalues --    0.26232   0.26968   0.27190   0.27541   0.28335
 Alpha virt. eigenvalues --    0.29916   0.30553   0.31143   0.31329   0.31686
 Alpha virt. eigenvalues --    0.33171   0.35388   0.35572   0.36781   0.36937
 Alpha virt. eigenvalues --    0.38615   0.39487   0.40841   0.43431   0.44329
 Alpha virt. eigenvalues --    0.45546   0.46514   0.46915   0.47297   0.48929
 Alpha virt. eigenvalues --    0.50292   0.52958   0.55203   0.55382   0.57489
 Alpha virt. eigenvalues --    0.59545   0.60677   0.62208   0.63458   0.66563
 Alpha virt. eigenvalues --    0.70688   0.70906   0.73754   0.73919   0.75409
 Alpha virt. eigenvalues --    0.75757   0.76833   0.77915   0.78647   0.81235
 Alpha virt. eigenvalues --    0.83392   0.85325   0.90268   0.91048   0.91596
 Alpha virt. eigenvalues --    0.94896   0.97718   0.98265   1.00348   1.01021
 Alpha virt. eigenvalues --    1.02199   1.03137   1.04181   1.10961   1.11497
 Alpha virt. eigenvalues --    1.14007   1.16110   1.18319   1.18658   1.22144
 Alpha virt. eigenvalues --    1.23722   1.27889   1.30317   1.37740   1.38525
 Alpha virt. eigenvalues --    1.38931   1.42740   1.46384   1.47041   1.49852
 Alpha virt. eigenvalues --    1.51721   1.53297   1.55524   1.55637   1.56735
 Alpha virt. eigenvalues --    1.69783   1.70945   1.71082   1.71580   1.75626
 Alpha virt. eigenvalues --    1.76200   1.78428   1.81766   1.85000   1.85676
 Alpha virt. eigenvalues --    1.86360   1.88803   1.89709   1.92294   1.94999
 Alpha virt. eigenvalues --    1.98528   2.02009   2.03042   2.06053   2.08048
 Alpha virt. eigenvalues --    2.11125   2.16098   2.16192   2.19250   2.19274
 Alpha virt. eigenvalues --    2.28924   2.29977   2.31665   2.33835   2.37780
 Alpha virt. eigenvalues --    2.38497   2.38531   2.39631   2.40561   2.42266
 Alpha virt. eigenvalues --    2.46577   2.48913   2.51871   2.54328   2.57322
 Alpha virt. eigenvalues --    2.58428   2.60000   2.72615   2.73225   2.80253
 Alpha virt. eigenvalues --    2.82707   2.83733   2.85185   2.87206   2.92315
 Alpha virt. eigenvalues --    2.93480   2.95058   2.96752   2.99978   3.08572
 Alpha virt. eigenvalues --    3.11242   3.12452   3.13484   3.23958   3.29921
 Alpha virt. eigenvalues --    3.30289   3.32830   3.33529   3.35494   3.37081
 Alpha virt. eigenvalues --    3.47001   3.48263   3.49199   3.52891   3.54773
 Alpha virt. eigenvalues --    3.56672   3.68028   3.73858   3.78856   3.94785
 Alpha virt. eigenvalues --    4.02214   4.20177   4.22737   4.24395   4.36692
 Alpha virt. eigenvalues --    4.46236   4.60785   4.60983   4.63634   4.63850
 Alpha virt. eigenvalues --    4.82528   4.85196   4.86951   4.90783   4.92477
 Alpha virt. eigenvalues --    4.93574   5.04094   5.06608   5.33050   5.36121
 Alpha virt. eigenvalues --    5.62823   5.86925   7.02999   7.04010   7.09856
 Alpha virt. eigenvalues --    7.13523   7.21567   7.24116   7.35851   7.72273
 Alpha virt. eigenvalues --    7.73642   7.73656   7.74997   7.80048   7.83615
 Alpha virt. eigenvalues --    7.95481   7.97547   8.06681   8.15193   8.31559
 Alpha virt. eigenvalues --    8.92706   9.65859  10.12681  10.18856  10.21734
 Alpha virt. eigenvalues --   10.25112  10.29879  13.50214  13.53659  13.66908
 Alpha virt. eigenvalues --   13.77861  14.01280  14.12470  18.55474  18.66969
 Alpha virt. eigenvalues --   24.89616  25.10539  25.17419  42.01442  69.74900
 Alpha virt. eigenvalues --   69.92559  69.97560  70.00263  70.02305  70.06150
 Alpha virt. eigenvalues --  139.78959 139.80931 308.95004
          Condensed to atoms (all electrons):
               1          2          3          4          5          6
     1  C    0.066861  -0.003582  -0.001957   0.045232  -0.046914  -0.063752
     2  C   -0.003582   0.000294   0.000176  -0.002956   0.002847   0.003358
     3  C   -0.001957   0.000176   0.000137  -0.002316   0.002132   0.001922
     4  C    0.045232  -0.002956  -0.002316   0.060265  -0.056957  -0.047145
     5  C   -0.046914   0.002847   0.002132  -0.056957   0.055087   0.048808
     6  C   -0.063752   0.003358   0.001922  -0.047145   0.048808   0.062094
     7  O    0.003158  -0.000098  -0.000052   0.001868  -0.002181  -0.003229
     8  O    0.001948  -0.000081  -0.000066   0.002940  -0.002995  -0.002271
     9  H   -0.000061   0.000008   0.000007  -0.000093   0.000079   0.000058
    10  H   -0.000096   0.000010   0.000005  -0.000057   0.000054   0.000082
    11  Mg  -0.004114   0.000153   0.000101  -0.003895   0.003840   0.004072
    12  H   -0.000482   0.000022   0.000008  -0.000137   0.000168   0.000421
    13  H   -0.000140   0.000013   0.000016  -0.000444   0.000383   0.000171
    14  H   -0.000014   0.000000   0.000000  -0.000013   0.000008   0.000009
    15  H    0.000009  -0.000000  -0.000000   0.000008  -0.000004  -0.000004
    16  H    0.034195  -0.001331  -0.000938   0.032424  -0.041491  -0.043599
    17  H    0.014677  -0.000502  -0.000362   0.013939  -0.019048  -0.019927
               7          8          9         10         11         12
     1  C    0.003158   0.001948  -0.000061  -0.000096  -0.004114  -0.000482
     2  C   -0.000098  -0.000081   0.000008   0.000010   0.000153   0.000022
     3  C   -0.000052  -0.000066   0.000007   0.000005   0.000101   0.000008
     4  C    0.001868   0.002940  -0.000093  -0.000057  -0.003895  -0.000137
     5  C   -0.002181  -0.002995   0.000079   0.000054   0.003840   0.000168
     6  C   -0.003229  -0.002271   0.000058   0.000082   0.004072   0.000421
     7  O    0.000368   0.000184  -0.000000  -0.000001  -0.000339  -0.000016
     8  O    0.000184   0.000359  -0.000001  -0.000000  -0.000337  -0.000002
     9  H   -0.000000  -0.000001   0.000001   0.000000   0.000002   0.000000
    10  H   -0.000001  -0.000000   0.000000   0.000001   0.000002   0.000001
    11  Mg  -0.000339  -0.000337   0.000002   0.000002   0.000840   0.000015
    12  H   -0.000016  -0.000002   0.000000   0.000001   0.000015   0.000010
    13  H   -0.000002  -0.000015   0.000001   0.000000   0.000015   0.000000
    14  H   -0.000003  -0.000003   0.000000   0.000000   0.000015   0.000000
    15  H    0.000001   0.000001  -0.000000  -0.000000  -0.000011  -0.000000
    16  H    0.003221   0.003196  -0.000004  -0.000004  -0.003831  -0.000033
    17  H    0.001472   0.001470  -0.000001  -0.000001  -0.002129  -0.000007
              13         14         15         16         17
     1  C   -0.000140  -0.000014   0.000009   0.034195   0.014677
     2  C    0.000013   0.000000  -0.000000  -0.001331  -0.000502
     3  C    0.000016   0.000000  -0.000000  -0.000938  -0.000362
     4  C   -0.000444  -0.000013   0.000008   0.032424   0.013939
     5  C    0.000383   0.000008  -0.000004  -0.041491  -0.019048
     6  C    0.000171   0.000009  -0.000004  -0.043599  -0.019927
     7  O   -0.000002  -0.000003   0.000001   0.003221   0.001472
     8  O   -0.000015  -0.000003   0.000001   0.003196   0.001470
     9  H    0.000001   0.000000  -0.000000  -0.000004  -0.000001
    10  H    0.000000   0.000000  -0.000000  -0.000004  -0.000001
    11  Mg   0.000015   0.000015  -0.000011  -0.003831  -0.002129
    12  H    0.000000   0.000000  -0.000000  -0.000033  -0.000007
    13  H    0.000009   0.000000  -0.000000  -0.000031  -0.000007
    14  H    0.000000   0.000003  -0.000002  -0.000015  -0.000012
    15  H   -0.000000  -0.000002   0.000001   0.000004   0.000003
    16  H   -0.000031  -0.000015   0.000004   0.646564   0.430884
    17  H   -0.000007  -0.000012   0.000003   0.430884   0.547694
 Mulliken charges:
               1
     1  C   -0.044969
     2  C    0.001668
     3  C    0.001188
     4  C   -0.042664
     5  C    0.056183
     6  C    0.058931
     7  O   -0.004349
     8  O   -0.004326
     9  H    0.000004
    10  H    0.000003
    11  Mg   0.005602
    12  H    0.000034
    13  H    0.000033
    14  H    0.000026
    15  H   -0.000007
    16  H   -0.059211
    17  H    0.031855
 Sum of Mulliken charges =   0.00000
 Mulliken charges with hydrogens summed into heavy atoms:
               1
     1  C   -0.044935
     2  C    0.001672
     3  C    0.001191
     4  C   -0.042632
     5  C    0.056183
     6  C   -0.000280
     7  O   -0.004349
     8  O   -0.004326
    11  Mg   0.037476
         Mulliken charges condensed to fragments:
      1      0.027337
      2      0.000019
      3     -0.027356
 Electronic spatial extent (au):  <R**2>=             69.6589
 Charge=              0.0000 electrons
 Dipole moment (field-independent basis, Debye):
    X=              0.0056    Y=             -0.0001    Z=             -0.0047  Tot=              0.0073
 Quadrupole moment (field-independent basis, Debye-Ang):
   XX=             -1.7801   YY=             -2.0845   ZZ=             -1.7835
   XY=             -0.0025   XZ=              0.3295   YZ=             -0.0028
 Traceless Quadrupole moment (field-independent basis, Debye-Ang):
   XX=              0.1026   YY=             -0.2018   ZZ=              0.0992
   XY=             -0.0025   XZ=              0.3295   YZ=             -0.0028
 Octapole moment (field-independent basis, Debye-Ang**2):
  XXX=             -4.5952  YYY=              0.0047  ZZZ=            -15.2896  XYY=             -1.7892
  XXY=             -0.0030  XXZ=             -4.5858  XZZ=              0.3388  YZZ=             -0.0145
  YYZ=             -5.9997  XYZ=             -0.0098
 Hexadecapole moment (field-independent basis, Debye-Ang**3):
 XXXX=            -10.3646 YYYY=             -2.0669 ZZZZ=            -90.3423 XXXY=             -0.0006
 XXXZ=            -12.7160 YYYX=              0.0058 YYYZ=              0.0152 ZZZX=             -5.3111
 ZZZY=             -0.0546 XXYY=             -2.3005 XXZZ=            -13.7643 YYZZ=            -18.0376
 XXYZ=             -0.0107 YYXZ=             -5.2189 ZZXY=             -0.0340
 N-N= 7.136454694767D-01 E-N=-3.625899994397D+00  KE= 1.121885563155D+00
 CPIOFr:  IOpCl= 0 IRwI=-1 IRwCP=  731 ICalc=  3 LCPTot=      101349 Len1MO=      263944 IndFrg=     1157125
 Counterpoise: doing calculation for fragment   1 using the basis set of the fragment.
 Basis read from rwf:  (5D, 7F)
 There are   239 symmetry adapted cartesian basis functions of A   symmetry.
 There are   230 symmetry adapted basis functions of A   symmetry.
   230 basis functions,   370 primitive gaussians,   239 cartesian basis functions
    34 alpha electrons       34 beta electrons
       nuclear repulsion energy       447.3503058237 Hartrees.
 NAtoms=   17 NActive=   13 NUniq=   13 SFac= 1.00D+00 NAtFMM=   60 NAOKFM=F Big=F
 Integral buffers will be    131072 words long.
 Raffenetti 1 integral format.
 Two-electron integral symmetry is turned on.
 One-electron integrals computed using PRISM.
 NBasis=   230 RedAO= T EigKep=  1.61D-06  NBF=   230
 NBsUse=   230 1.00D-06 EigRej= -1.00D+00 NBFU=   230
 ExpMin= 1.46D-02 ExpMax= 4.39D+04 ExpMxC= 1.51D+03 IAcc=3 IRadAn=         5 AccDes= 0.00D+00
 Harris functional with IExCor=  205 and IRadAn=       5 diagonalized for initial guess.
 HarFok:  IExCor=  205 AccDes= 0.00D+00 IRadAn=         5 IDoV= 1 UseB2=F ITyADJ=14
 ICtDFT=  3500011 ScaDFX=  1.000000  1.000000  1.000000  1.000000
 FoFCou: FMM=F IPFlag=           0 FMFlag=      100000 FMFlg1=           0
         NFxFlg=           0 DoJE=T BraDBF=F KetDBF=T FulRan=T
         wScrn=  0.000000 ICntrl=       500 IOpCl=  0 I1Cent=   200000004 NGrid=           0
         NMat0=    1 NMatS0=      1 NMatT0=    0 NMatD0=    1 NMtDS0=    0 NMtDT0=    0
 Petite list used in FoFCou.
 Requested convergence on RMS density matrix=1.00D-08 within 128 cycles.
 Requested convergence on MAX density matrix=1.00D-06.
 Requested convergence on             energy=1.00D-06.
 No special actions if energy rises.
 SCF Done:  E(RHF) =  -578.984327236     A.U. after   16 cycles
            NFock= 16  Conv=0.62D-08     -V/T= 2.0013
 ExpMin= 1.46D-02 ExpMax= 4.39D+04 ExpMxC= 1.51D+03 IAcc=3 IRadAn=         5 AccDes= 0.00D+00
 HarFok:  IExCor=  205 AccDes= 0.00D+00 IRadAn=         5 IDoV=-2 UseB2=F ITyADJ=14
 ICtDFT= 12500011 ScaDFX=  1.000000  1.000000  1.000000  1.000000
 Range of M.O.s used for correlation:    14   230
 NBasis=   230 NAE=    34 NBE=    34 NFC=    13 NFV=     0
 NROrb=    217 NOA=    21 NOB=    21 NVA=   196 NVB=   196

 **** Warning!!: The largest alpha MO coefficient is  0.20150661D+03

 Fully in-core method, ICMem=   852042854.
 JobTyp=1 Pass  1 fully in-core, NPsUse= 16.
 Spin components of T(2) and E(2):
     alpha-alpha T2 =       0.6097051811D-01 E2=     -0.1714895891D+00
     alpha-beta  T2 =       0.3049521981D+00 E2=     -0.9067914253D+00
     beta-beta   T2 =       0.6097051811D-01 E2=     -0.1714895891D+00
 ANorm=    0.1194526364D+01
 E2 =    -0.1249770603D+01 EUMP2 =    -0.58023409783955D+03

 **********************************************************************

            Population analysis using the SCF Density.

 **********************************************************************

 Orbital symmetries:
       Occupied  (A) (A) (A) (A) (A) (A) (A) (A) (A) (A) (A) (A)
                 (A) (A) (A) (A) (A) (A) (A) (A) (A) (A) (A) (A)
                 (A) (A) (A) (A) (A) (A) (A) (A) (A) (A)
       Virtual   (A) (A) (A) (A) (A) (A) (A) (A) (A) (A) (A) (A)
                 (A) (A) (A) (A) (A) (A) (A) (A) (A) (A) (A) (A)
                 (A) (A) (A) (A) (A) (A) (A) (A) (A) (A) (A) (A)
                 (A) (A) (A) (A) (A) (A) (A) (A) (A) (A) (A) (A)
                 (A) (A) (A) (A) (A) (A) (A) (A) (A) (A) (A) (A)
                 (A) (A) (A) (A) (A) (A) (A) (A) (A) (A) (A) (A)
                 (A) (A) (A) (A) (A) (A) (A) (A) (A) (A) (A) (A)
                 (A) (A) (A) (A) (A) (A) (A) (A) (A) (A) (A) (A)
                 (A) (A) (A) (A) (A) (A) (A) (A) (A) (A) (A) (A)
                 (A) (A) (A) (A) (A) (A) (A) (A) (A) (A) (A) (A)
                 (A) (A) (A) (A) (A) (A) (A) (A) (A) (A) (A) (A)
                 (A) (A) (A) (A) (A) (A) (A) (A) (A) (A) (A) (A)
                 (A) (A) (A) (A) (A) (A) (A) (A) (A) (A) (A) (A)
                 (A) (A) (A) (A) (A) (A) (A) (A) (A) (A) (A) (A)
                 (A) (A) (A) (A) (A) (A) (A) (A) (A) (A) (A) (A)
                 (A) (A) (A) (A) (A) (A) (A) (A) (A) (A) (A) (A)
                 (A) (A) (A) (A)
 The electronic state is 1-A.
 Alpha  occ. eigenvalues --  -49.10387 -20.50783 -20.50782 -11.25876 -11.25777
 Alpha  occ. eigenvalues --  -11.20022 -11.19911 -11.19685 -11.19680  -3.83501
 Alpha  occ. eigenvalues --   -2.35782  -2.35755  -2.35594  -1.31697  -1.27983
 Alpha  occ. eigenvalues --   -1.09262  -0.96762  -0.94184  -0.79245  -0.76713
 Alpha  occ. eigenvalues --   -0.65306  -0.63265  -0.61047  -0.56392  -0.55287
 Alpha  occ. eigenvalues --   -0.54939  -0.49817  -0.49607  -0.47997  -0.44985
 Alpha  occ. eigenvalues --   -0.42401  -0.42095  -0.28891  -0.25336
 Alpha virt. eigenvalues --   -0.05739   0.01703   0.01917   0.02381   0.04417
 Alpha virt. eigenvalues --    0.06421   0.07330   0.08763   0.10453   0.10841
 Alpha virt. eigenvalues --    0.12338   0.13563   0.14475   0.15963   0.16135
 Alpha virt. eigenvalues --    0.16446   0.16733   0.17734   0.17791   0.18388
 Alpha virt. eigenvalues --    0.19387   0.20850   0.20889   0.20905   0.21797
 Alpha virt. eigenvalues --    0.24136   0.24475   0.24478   0.24516   0.25840
 Alpha virt. eigenvalues --    0.26696   0.28940   0.29201   0.30805   0.31024
 Alpha virt. eigenvalues --    0.31411   0.32469   0.34001   0.36274   0.36739
 Alpha virt. eigenvalues --    0.36880   0.36966   0.37456   0.38755   0.41445
 Alpha virt. eigenvalues --    0.43897   0.43910   0.44764   0.47200   0.47553
 Alpha virt. eigenvalues --    0.47979   0.50513   0.52875   0.53658   0.54345
 Alpha virt. eigenvalues --    0.55154   0.57947   0.58260   0.58887   0.64849
 Alpha virt. eigenvalues --    0.65396   0.70886   0.74054   0.74700   0.75431
 Alpha virt. eigenvalues --    0.75909   0.76242   0.78483   0.79842   0.80260
 Alpha virt. eigenvalues --    0.81034   0.83165   0.84591   0.86683   0.87017
 Alpha virt. eigenvalues --    0.90899   0.91403   0.93015   0.95279   0.96683
 Alpha virt. eigenvalues --    0.97207   1.01446   1.02936   1.03245   1.05719
 Alpha virt. eigenvalues --    1.09706   1.11577   1.13561   1.16283   1.16689
 Alpha virt. eigenvalues --    1.20477   1.22838   1.25809   1.27121   1.28771
 Alpha virt. eigenvalues --    1.28817   1.37262   1.37712   1.41068   1.41383
 Alpha virt. eigenvalues --    1.45148   1.49690   1.52809   1.53000   1.55156
 Alpha virt. eigenvalues --    1.56666   1.69073   1.69853   1.76376   1.83230
 Alpha virt. eigenvalues --    1.83867   1.86379   1.88305   1.92143   1.94880
 Alpha virt. eigenvalues --    1.96142   1.99429   2.03798   2.05119   2.09583
 Alpha virt. eigenvalues --    2.12012   2.16262   2.17730   2.20473   2.22959
 Alpha virt. eigenvalues --    2.26383   2.28290   2.28864   2.29601   2.36170
 Alpha virt. eigenvalues --    2.36693   2.37804   2.49449   2.55831   2.58073
 Alpha virt. eigenvalues --    2.65286   2.66032   2.78907   2.80443   2.89929
 Alpha virt. eigenvalues --    2.94140   3.02657   3.05085   3.05198   3.07826
 Alpha virt. eigenvalues --    3.09673   3.11344   3.17335   3.17620   3.18217
 Alpha virt. eigenvalues --    3.22877   3.28930   3.29717   3.33525   3.34909
 Alpha virt. eigenvalues --    3.41928   3.45638   3.50097   3.50785   3.58094
 Alpha virt. eigenvalues --    3.60356   3.60788   3.65675   3.69090   3.81131
 Alpha virt. eigenvalues --    3.83916   3.86502   3.87538   3.95579   3.99017
 Alpha virt. eigenvalues --    4.07531   4.16493   4.47440   4.49252   4.60274
 Alpha virt. eigenvalues --    4.67040   4.68278   5.29177   5.62519   5.67618
 Alpha virt. eigenvalues --    5.76729   5.89376   6.19908   6.35225   6.38360
 Alpha virt. eigenvalues --    6.61895   6.64266  24.77191  25.06322  25.11146
 Alpha virt. eigenvalues --   25.21418  25.27192  25.36493  51.69776  51.76699
 Alpha virt. eigenvalues --  105.73245
          Condensed to atoms (all electrons):
               1          2          3          4          5          6
     1  C   21.742458  -0.500262   1.267062  -7.647909  -9.931000   1.930736
     2  C   -0.500262   5.643757   0.304286   1.267357  -0.685481  -0.246840
     3  C    1.267062   0.304286   5.643704  -0.497930  -0.247080  -0.686897
     4  C   -7.647909   1.267357  -0.497930  21.736615   1.932408  -9.929879
     5  C   -9.931000  -0.685481  -0.247080   1.932408  21.242755  -7.281962
     6  C    1.930736  -0.246840  -0.686897  -9.929879  -7.281962  21.243532
     7  O   -1.104104   0.042004  -0.034589   0.263407   0.459654   0.327699
     8  O    0.263360  -0.034582   0.041897  -1.103809   0.327538   0.459656
     9  H   -0.030328   0.007160   0.396503  -0.032220   0.005334   0.019809
    10  H   -0.032255   0.396525   0.007138  -0.030296   0.019783   0.005363
    11  Mg   0.102994  -0.016245  -0.016226   0.102942  -0.168484  -0.168204
    12  H    0.324873  -0.008941  -0.004511  -0.003671   0.023642   0.039715
    13  H   -0.003692  -0.004505  -0.008974   0.324920   0.039691   0.023653
               7          8          9         10         11         12
     1  C   -1.104104   0.263360  -0.030328  -0.032255   0.102994   0.324873
     2  C    0.042004  -0.034582   0.007160   0.396525  -0.016245  -0.008941
     3  C   -0.034589   0.041897   0.396503   0.007138  -0.016226  -0.004511
     4  C    0.263407  -1.103809  -0.032220  -0.030296   0.102942  -0.003671
     5  C    0.459654   0.327538   0.005334   0.019783  -0.168484   0.023642
     6  C    0.327699   0.459656   0.019809   0.005363  -0.168204   0.039715
     7  O    8.338021   0.005113   0.000093  -0.000330   0.213385  -0.003762
     8  O    0.005113   8.338052  -0.000330   0.000093   0.213407  -0.000197
     9  H    0.000093  -0.000330   0.521827  -0.005041   0.000369  -0.000145
    10  H   -0.000330   0.000093  -0.005041   0.521825   0.000369  -0.004950
    11  Mg   0.213385   0.213407   0.000369   0.000369  10.653394   0.001291
    12  H   -0.003762  -0.000197  -0.000145  -0.004950   0.001291   0.509167
    13  H   -0.000197  -0.003757  -0.004951  -0.000145   0.001292   0.000019
              13
     1  C   -0.003692
     2  C   -0.004505
     3  C   -0.008974
     4  C    0.324920
     5  C    0.039691
     6  C    0.023653
     7  O   -0.000197
     8  O   -0.003757
     9  H   -0.004951
    10  H   -0.000145
    11  Mg   0.001292
    12  H    0.000019
    13  H    0.509171
 Mulliken charges:
               1
     1  C   -0.381934
     2  C   -0.164232
     3  C   -0.164383
     4  C   -0.381935
     5  C    0.263202
     6  C    0.263619
     7  O   -0.506396
     8  O   -0.506442
     9  H    0.121921
    10  H    0.121922
    11  Mg   1.079714
    12  H    0.127470
    13  H    0.127474
    14  H    0.000000
    15  H    0.000000
    16  H    0.000000
    17  H    0.000000
 Sum of Mulliken charges =  -0.00000
 Mulliken charges with hydrogens summed into heavy atoms:
               1
     1  C   -0.254464
     2  C   -0.042311
     3  C   -0.042462
     4  C   -0.254461
     5  C    0.263202
     6  C    0.263619
     7  O   -0.506396
     8  O   -0.506442
    11  Mg   1.079714
         Mulliken charges condensed to fragments:
      1     -0.000000
      2      0.000000
      3      0.000000
 Electronic spatial extent (au):  <R**2>=           1148.9969
 Charge=             -0.0000 electrons
 Dipole moment (field-independent basis, Debye):
    X=              8.9495    Y=              0.0008    Z=             -0.2021  Tot=              8.9518
 Quadrupole moment (field-independent basis, Debye-Ang):
   XX=            -20.9773   YY=            -63.7486   ZZ=            -56.8889
   XY=              0.0037   XZ=             -1.5650   YZ=              0.0004
 Traceless Quadrupole moment (field-independent basis, Debye-Ang):
   XX=             26.2276   YY=            -16.5436   ZZ=             -9.6839
   XY=              0.0037   XZ=             -1.5650   YZ=              0.0004
 Octapole moment (field-independent basis, Debye-Ang**2):
  XXX=            165.6905  YYY=             -0.0055  ZZZ=             12.0636  XYY=              0.4258
  XXY=              0.0126  XXZ=             -0.4482  XZZ=             34.0964  YZZ=              0.0000
  YYZ=              5.3522  XYZ=              0.0022
 Hexadecapole moment (field-independent basis, Debye-Ang**3):
 XXXX=           -616.3888 YYYY=           -468.4761 ZZZZ=            -69.8066 XXXY=              0.0225
 XXXZ=            -12.4251 YYYX=             -0.0068 YYYZ=              0.0151 ZZZX=              2.3019
 ZZZY=              0.0184 XXYY=           -243.2734 XXZZ=           -182.8117 YYZZ=            -97.5998
 XXYZ=              0.0033 YYXZ=              3.2661 ZZXY=             -0.0024
 N-N= 4.473503058237D+02 E-N=-2.266165024605D+03  KE= 5.782306773527D+02
 CPIOFr:  IOpCl= 0 IRwI=-1 IRwCP=  731 ICalc=  4 LCPTot=      101349 Len1MO=      263944 IndFrg=     1421069
 Counterpoise: doing calculation for fragment   2 using the basis set of the fragment.
 Basis read from rwf:  (5D, 7F)
 There are    12 symmetry adapted cartesian basis functions of A   symmetry.
 There are    12 symmetry adapted basis functions of A   symmetry.
    12 basis functions,    16 primitive gaussians,    12 cartesian basis functions
     1 alpha electrons        1 beta electrons
       nuclear repulsion energy         0.7081891140 Hartrees.
 NAtoms=   17 NActive=    2 NUniq=    2 SFac= 1.00D+00 NAtFMM=   60 NAOKFM=F Big=F
 Integral buffers will be    131072 words long.
 Raffenetti 1 integral format.
 Two-electron integral symmetry is turned on.
 One-electron integrals computed using PRISM.
 NBasis=    12 RedAO= T EigKep=  1.69D-02  NBF=    12
 NBsUse=    12 1.00D-06 EigRej= -1.00D+00 NBFU=    12
 ExpMin= 1.03D-01 ExpMax= 3.39D+01 ExpMxC= 3.39D+01 IAcc=3 IRadAn=         5 AccDes= 0.00D+00
 Harris functional with IExCor=  205 and IRadAn=       5 diagonalized for initial guess.
 HarFok:  IExCor=  205 AccDes= 0.00D+00 IRadAn=         5 IDoV= 1 UseB2=F ITyADJ=14
 ICtDFT=  3500011 ScaDFX=  1.000000  1.000000  1.000000  1.000000
 FoFCou: FMM=F IPFlag=           0 FMFlag=      100000 FMFlg1=           0
         NFxFlg=           0 DoJE=T BraDBF=F KetDBF=T FulRan=T
         wScrn=  0.000000 ICntrl=       500 IOpCl=  0 I1Cent=   200000004 NGrid=           0
         NMat0=    1 NMatS0=      1 NMatT0=    0 NMatD0=    1 NMtDS0=    0 NMtDT0=    0
 Petite list used in FoFCou.
 Keep R1 ints in memory in canonical form, NReq=3207929.
 Requested convergence on RMS density matrix=1.00D-08 within 128 cycles.
 Requested convergence on MAX density matrix=1.00D-06.
 Requested convergence on             energy=1.00D-06.
 No special actions if energy rises.
 SCF Done:  E(RHF) =  -1.13239415324     A.U. after    6 cycles
            NFock=  6  Conv=0.28D-10     -V/T= 2.0148
 Range of M.O.s used for correlation:     1    12
 NBasis=    12 NAE=     1 NBE=     1 NFC=     0 NFV=     0
 NROrb=     12 NOA=     1 NOB=     1 NVA=    11 NVB=    11
 Fully in-core method, ICMem=     6012708.
 JobTyp=1 Pass  1 fully in-core, NPsUse= 16.
 Spin components of T(2) and E(2):
     alpha-alpha T2 =       0.0000000000D+00 E2=      0.0000000000D+00
     alpha-beta  T2 =       0.9146454491D-02 E2=     -0.2782406496D-01
     beta-beta   T2 =       0.0000000000D+00 E2=      0.0000000000D+00
 ANorm=    0.1004562818D+01
 E2 =    -0.2782406496D-01 EUMP2 =    -0.11602182181988D+01

 **********************************************************************

            Population analysis using the SCF Density.

 **********************************************************************

 Orbital symmetries:
       Occupied  (A)
       Virtual   (A) (A) (A) (A) (A) (A) (A) (A) (A) (A) (A)
 The electronic state is 1-A.
 Alpha  occ. eigenvalues --   -0.59250
 Alpha virt. eigenvalues --    0.16540   0.30737   0.64199   1.33169   1.33169
 Alpha virt. eigenvalues --    1.81427   2.09350   2.09350   2.21713   2.71037
 Alpha virt. eigenvalues --    3.64557
          Condensed to atoms (all electrons):
              14         15
    14  H    0.581782   0.418218
    15  H    0.418218   0.581782
 Mulliken charges:
               1
     1  C    0.000000
     2  C    0.000000
     3  C    0.000000
     4  C    0.000000
     5  C    0.000000
     6  C    0.000000
     7  O    0.000000
     8  O    0.000000
     9  H    0.000000
    10  H    0.000000
    11  Mg   0.000000
    12  H    0.000000
    13  H    0.000000
    14  H   -0.000000
    15  H    0.000000
    16  H    0.000000
    17  H    0.000000
 Sum of Mulliken charges =  -0.00000
 Mulliken charges with hydrogens summed into heavy atoms:
               1
     1  C    0.000000
     2  C    0.000000
     3  C    0.000000
     4  C    0.000000
     5  C    0.000000
     6  C    0.000000
     7  O    0.000000
     8  O    0.000000
    11  Mg  -0.000000
         Mulliken charges condensed to fragments:
      1      0.000000
      2     -0.000000
      3      0.000000
 Electronic spatial extent (au):  <R**2>=            151.6307
 Charge=             -0.0000 electrons
 Dipole moment (field-independent basis, Debye):
    X=             -0.0000    Y=              0.0000    Z=             -0.0000  Tot=              0.0000
 Quadrupole moment (field-independent basis, Debye-Ang):
   XX=             -2.0914   YY=             -2.0902   ZZ=             -1.4971
   XY=              0.0000   XZ=              0.0001   YZ=              0.0266
 Traceless Quadrupole moment (field-independent basis, Debye-Ang):
   XX=             -0.1985   YY=             -0.1973   ZZ=              0.3958
   XY=              0.0000   XZ=              0.0001   YZ=              0.0266
 Octapole moment (field-independent basis, Debye-Ang**2):
  XXX=            -28.3936  YYY=              0.0016  ZZZ=              0.6329  XYY=             -9.4591
  XXY=              0.0006  XXZ=              0.2960  XZZ=             -6.7752  YZZ=             -0.0071
  YYZ=              0.2945  XYZ=              0.1206
 Hexadecapole moment (field-independent basis, Debye-Ang**3):
 XXXX=           -259.0832 YYYY=             -2.0963 ZZZZ=             -3.1362 XXXY=              0.0078
 XXXZ=              4.0094 YYYX=              0.0075 YYYZ=             -0.0220 ZZZX=              2.8640
 ZZZY=             -0.0156 XXYY=            -43.5054 XXZZ=            -31.5624 YYZZ=             -0.9013
 XXYZ=              0.5384 YYXZ=              1.3328 ZZXY=             -0.0322
 N-N= 7.081891140276D-01 E-N=-3.611991341637D+00  KE= 1.115826738451D+00
 CPIOFr:  IOpCl= 0 IRwI=-1 IRwCP=  731 ICalc=  5 LCPTot=      101349 Len1MO=      263944 IndFrg=     1685013
 Counterpoise: doing calculation for fragment   3 using the basis set of the fragment.
 Basis read from rwf:  (5D, 7F)
 There are    12 symmetry adapted cartesian basis functions of A   symmetry.
 There are    12 symmetry adapted basis functions of A   symmetry.
    12 basis functions,    16 primitive gaussians,    12 cartesian basis functions
     1 alpha electrons        1 beta electrons
       nuclear repulsion energy         0.7136454695 Hartrees.
 NAtoms=   17 NActive=    2 NUniq=    2 SFac= 1.00D+00 NAtFMM=   60 NAOKFM=F Big=F
 Integral buffers will be    131072 words long.
 Raffenetti 1 integral format.
 Two-electron integral symmetry is turned on.
 One-electron integrals computed using PRISM.
 NBasis=    12 RedAO= T EigKep=  1.65D-02  NBF=    12
 NBsUse=    12 1.00D-06 EigRej= -1.00D+00 NBFU=    12
 ExpMin= 1.03D-01 ExpMax= 3.39D+01 ExpMxC= 3.39D+01 IAcc=3 IRadAn=         5 AccDes= 0.00D+00
 Harris functional with IExCor=  205 and IRadAn=       5 diagonalized for initial guess.
 HarFok:  IExCor=  205 AccDes= 0.00D+00 IRadAn=         5 IDoV= 1 UseB2=F ITyADJ=14
 ICtDFT=  3500011 ScaDFX=  1.000000  1.000000  1.000000  1.000000
 FoFCou: FMM=F IPFlag=           0 FMFlag=      100000 FMFlg1=           0
         NFxFlg=           0 DoJE=T BraDBF=F KetDBF=T FulRan=T
         wScrn=  0.000000 ICntrl=       500 IOpCl=  0 I1Cent=   200000004 NGrid=           0
         NMat0=    1 NMatS0=      1 NMatT0=    0 NMatD0=    1 NMtDS0=    0 NMtDT0=    0
 Petite list used in FoFCou.
 Keep R1 ints in memory in canonical form, NReq=3207929.
 Requested convergence on RMS density matrix=1.00D-08 within 128 cycles.
 Requested convergence on MAX density matrix=1.00D-06.
 Requested convergence on             energy=1.00D-06.
 No special actions if energy rises.
 SCF Done:  E(RHF) =  -1.13246508728     A.U. after    6 cycles
            NFock=  6  Conv=0.28D-10     -V/T= 2.0097
 Range of M.O.s used for correlation:     1    12
 NBasis=    12 NAE=     1 NBE=     1 NFC=     0 NFV=     0
 NROrb=     12 NOA=     1 NOB=     1 NVA=    11 NVB=    11
 Fully in-core method, ICMem=     6012708.
 JobTyp=1 Pass  1 fully in-core, NPsUse= 16.
 Spin components of T(2) and E(2):
     alpha-alpha T2 =       0.0000000000D+00 E2=      0.0000000000D+00
     alpha-beta  T2 =       0.9088080683D-02 E2=     -0.2780026553D-01
     beta-beta   T2 =       0.0000000000D+00 E2=      0.0000000000D+00
 ANorm=    0.1004533763D+01
 E2 =    -0.2780026553D-01 EUMP2 =    -0.11602653528126D+01

 **********************************************************************

            Population analysis using the SCF Density.

 **********************************************************************

 Orbital symmetries:
       Occupied  (A)
       Virtual   (A) (A) (A) (A) (A) (A) (A) (A) (A) (A) (A)
 The electronic state is 1-A.
 Alpha  occ. eigenvalues --   -0.59425
 Alpha virt. eigenvalues --    0.16618   0.30690   0.64388   1.33232   1.33232
 Alpha virt. eigenvalues --    1.81742   2.09754   2.09754   2.20768   2.70999
 Alpha virt. eigenvalues --    3.67742
          Condensed to atoms (all electrons):
              16         17
    16  H    0.580857   0.419143
    17  H    0.419143   0.580857
 Mulliken charges:
               1
     1  C    0.000000
     2  C    0.000000
     3  C    0.000000
     4  C    0.000000
     5  C    0.000000
     6  C    0.000000
     7  O    0.000000
     8  O    0.000000
     9  H    0.000000
    10  H    0.000000
    11  Mg   0.000000
    12  H    0.000000
    13  H    0.000000
    14  H    0.000000
    15  H    0.000000
    16  H   -0.000000
    17  H   -0.000000
 Sum of Mulliken charges =  -0.00000
 Mulliken charges with hydrogens summed into heavy atoms:
               1
     1  C    0.000000
     2  C    0.000000
     3  C    0.000000
     4  C    0.000000
     5  C    0.000000
     6  C   -0.000000
     7  O    0.000000
     8  O    0.000000
    11  Mg  -0.000000
         Mulliken charges condensed to fragments:
      1      0.000000
      2      0.000000
      3     -0.000000
 Electronic spatial extent (au):  <R**2>=             69.6676
 Charge=             -0.0000 electrons
 Dipole moment (field-independent basis, Debye):
    X=             -0.0000    Y=              0.0000    Z=             -0.0000  Tot=              0.0000
 Quadrupole moment (field-independent basis, Debye-Ang):
   XX=             -1.8006   YY=             -2.0827   ZZ=             -1.7764
   XY=             -0.0024   XZ=              0.2939   YZ=             -0.0025
 Traceless Quadrupole moment (field-independent basis, Debye-Ang):
   XX=              0.0859   YY=             -0.1961   ZZ=              0.1102
   XY=             -0.0024   XZ=              0.2939   YZ=             -0.0025
 Octapole moment (field-independent basis, Debye-Ang**2):
  XXX=             -4.6451  YYY=              0.0047  ZZZ=            -15.3426  XYY=             -1.7909
  XXY=             -0.0027  XXZ=             -4.6784  XZZ=              0.1648  YZZ=             -0.0130
  YYZ=             -5.9959  XYZ=             -0.0092
 Hexadecapole moment (field-independent basis, Debye-Ang**3):
 XXXX=            -10.4990 YYYY=             -2.0785 ZZZZ=            -90.8870 XXXY=             -0.0001
 XXXZ=            -12.9336 YYYX=              0.0060 YYYZ=              0.0156 ZZZX=             -6.0953
 ZZZY=             -0.0485 XXYY=             -2.3088 XXZZ=            -14.1527 YYZZ=            -18.0372
 XXYZ=             -0.0097 YYXZ=             -5.2350 ZZXY=             -0.0318
 N-N= 7.136454694767D-01 E-N=-3.625335095929D+00  KE= 1.121612646798D+00
 CPIOFr:  IOpCl= 0 IRwI=-1 IRwCP=  731 ICalc=  6 LCPTot=      101349 Len1MO=      263944 IndFrg=     1948957
 CPIOFr:  IOpCl= 0 IRwI=-2 IRwCP=  731 ICalc=  0 LCPTot=      101349 Len1MO=      263944 IndFrg=      365293
 Counterpoise corrected energy =    -582.564626525092
                   BSSE energy =       0.002035146071
              sum of fragments =    -582.554581410562
           complexation energy =      -7.58 kcal/mole (raw)
           complexation energy =      -6.30 kcal/mole (corrected)
 Unable to Open any file for archive entry.
 1\1\GINC-GPU26\SP\RMP2-FC\6-311+G(d,p)\C6H8Mg1O2\X2848A03\12-Sep-2024\
 0\\# MP2/6-311+g(d,p) counterpoise=3\\one_3_frag\\0,1\C,-1,-0.024595,1
 .400072,0.\C,-1,-1.237492,0.70046,0.\C,-1,-1.23752,-0.70037,0.\C,-1,-0
 .024642,-1.40013,0.\C,-1,1.200092,-0.718427,0.\C,-1,1.200046,0.71823,0
 .\O,-1,2.383247,1.407001,0.\O,-1,2.383318,-1.407126,0.\H,-1,-2.175863,
 -1.249095,0.\H,-1,-2.175827,1.249217,0.\Mg,-1,3.621576,-0.000011,0.\H,
 -1,0.001149,2.487128,0.\H,-1,0.000927,-2.48721,0.\H,0,5.800652,0.01607
 9,0.418543\H,0,5.81733,-0.017336,-0.327749\H,0,1.825563,0.001089,2.708
 501\H,0,2.326769,-0.003331,3.254957\\Version=ES64L-G16RevC.01\State=1-
 A\HF=-1.1324651\MP2=-1.1602654\RMSD=2.847e-11\PG=C01 [X(C6H8Mg1O2)]\\@
 The archive entry for this job was punched.


      THE ONE-EYED VIEW OF OUR UNIVERSE SAYS YOU MUST NOT LOOK
      FAR AFIELD FOR PROBLEMS.  SUCH PROBLEMS MAY NEVER ARRIVE. 
      INSTEAD, TEND TO THE WOLF WITHIN YOUR FENCES.
      THE PACKS RANGING OUTSIDE MAY NOT EVEN EXIST.

                              -- THE AZHAR BOOK SHAMRA I:4
                                 CHILDREN OF DUNE, BY FRANK HERBERT
 Job cpu time:       0 days  0 hours 20 minutes 32.7 seconds.
 Elapsed time:       0 days  0 hours  1 minutes 21.7 seconds.
 File lengths (MBytes):  RWF=     59 Int=      0 D2E=      0 Chk=     20 Scr=      1
 Normal termination of Gaussian 16 at Thu Sep 12 16:55:56 2024.
