 Entering Gaussian System, Link 0=g16
 Input=one_3_frag_2.gjf
 Output=one_3_frag_2.log
 Initial command:
 /apps/applications/G16/g16.c01/l1.exe "/scratch/x2848a03/calculation/H2_COF/H2_cate_opt/SP/Gau-61062.inp" -scrdir="/scratch/x2848a03/calculation/H2_COF/H2_cate_opt/SP/"
 Default CPUs for threads: 4-7,12-15,20-23,28-31
 Default is to use a total of  16 processors:
                               16 via shared-memory
                                1 via Linda
 Entering Link 1 = /apps/applications/G16/g16.c01/l1.exe PID=     61063.
  
 Copyright (c) 1988-2019, Gaussian, Inc.  All Rights Reserved.
  
 This is part of the Gaussian(R) 16 program.  It is based on
 the Gaussian(R) 09 system (copyright 2009, Gaussian, Inc.),
 the Gaussian(R) 03 system (copyright 2003, Gaussian, Inc.),
 the Gaussian(R) 98 system (copyright 1998, Gaussian, Inc.),
 the Gaussian(R) 94 system (copyright 1995, Gaussian, Inc.),
 the Gaussian 92(TM) system (copyright 1992, Gaussian, Inc.),
 the Gaussian 90(TM) system (copyright 1990, Gaussian, Inc.),
 the Gaussian 88(TM) system (copyright 1988, Gaussian, Inc.),
 the Gaussian 86(TM) system (copyright 1986, Carnegie Mellon
 University), and the Gaussian 82(TM) system (copyright 1983,
 Carnegie Mellon University). Gaussian is a federally registered
 trademark of Gaussian, Inc.
  
 This software contains proprietary and confidential information,
 including trade secrets, belonging to Gaussian, Inc.
  
 This software is provided under written license and may be
 used, copied, transmitted, or stored only in accord with that
 written license.
  
 The following legend is applicable only to US Government
 contracts under FAR:
  
                    RESTRICTED RIGHTS LEGEND
  
 Use, reproduction and disclosure by the US Government is
 subject to restrictions as set forth in subparagraphs (a)
 and (c) of the Commercial Computer Software - Restricted
 Rights clause in FAR 52.227-19.
  
 Gaussian, Inc.
 340 Quinnipiac St., Bldg. 40, Wallingford CT 06492
  
  
 ---------------------------------------------------------------
 Warning -- This program may not be used in any manner that
 competes with the business of Gaussian, Inc. or will provide
 assistance to any competitor of Gaussian, Inc.  The licensee
 of this program is prohibited from giving any competitor of
 Gaussian, Inc. access to this program.  By using this program,
 the user acknowledges that Gaussian, Inc. is engaged in the
 business of creating and licensing software in the field of
 computational chemistry and represents and warrants to the
 licensee that it is not a competitor of Gaussian, Inc. and that
 it will not use this program in any manner prohibited above.
 ---------------------------------------------------------------
  

 Cite this work as:
 Gaussian 16, Revision C.01,
 M. J. Frisch, G. W. Trucks, H. B. Schlegel, G. E. Scuseria, 
 M. A. Robb, J. R. Cheeseman, G. Scalmani, V. Barone, 
 G. A. Petersson, H. Nakatsuji, X. Li, M. Caricato, A. V. Marenich, 
 J. Bloino, B. G. Janesko, R. Gomperts, B. Mennucci, H. P. Hratchian, 
 J. V. Ortiz, A. F. Izmaylov, J. L. Sonnenberg, D. Williams-Young, 
 F. Ding, F. Lipparini, F. Egidi, J. Goings, B. Peng, A. Petrone, 
 T. Henderson, D. Ranasinghe, V. G. Zakrzewski, J. Gao, N. Rega, 
 G. Zheng, W. Liang, M. Hada, M. Ehara, K. Toyota, R. Fukuda, 
 J. Hasegawa, M. Ishida, T. Nakajima, Y. Honda, O. Kitao, H. Nakai, 
 T. Vreven, K. Throssell, J. A. Montgomery, Jr., J. E. Peralta, 
 F. Ogliaro, M. J. Bearpark, J. J. Heyd, E. N. Brothers, K. N. Kudin, 
 V. N. Staroverov, T. A. Keith, R. Kobayashi, J. Normand, 
 K. Raghavachari, A. P. Rendell, J. C. Burant, S. S. Iyengar, 
 J. Tomasi, M. Cossi, J. M. Millam, M. Klene, C. Adamo, R. Cammi, 
 J. W. Ochterski, R. L. Martin, K. Morokuma, O. Farkas, 
 J. B. Foresman, and D. J. Fox, Gaussian, Inc., Wallingford CT, 2019.
 
 ******************************************
 Gaussian 16:  ES64L-G16RevC.01  3-Jul-2019
                13-Sep-2024 
 ******************************************
 SetSPE:  set environment variable "MP_BIND" = "yes"
 SetSPE:  set environment variable "MP_BLIST" = "4,5,6,7,12,13,14,15,20,21,22,23,28,29,30,31"
 Will use    1 GPUs:
 Thread  CPU   GPU
      0    4     0
      1    5    -1
      2    6    -1
      3    7    -1
      4   12    -1
      5   13    -1
      6   14    -1
      7   15    -1
      8   20    -1
      9   21    -1
     10   22    -1
     11   23    -1
     12   28    -1
     13   29    -1
     14   30    -1
     15   31    -1
 SetGPE:  set environment variable "MP_BIND" = "yes"
 SetGPE:  set environment variable "MP_BLIST" = "4,5,6,7,12,13,14,15,20,21,22,23,28,29,30,31"
 Properties for Device   0
 Minimum vector length:                              32
 Maximum vector length:                            1024
 Number of SMPs:                                     80
 Maximum number of threads per SMP:                2048
 Number of ASync Engines:                             7
 Memory:                                           1050959872
    945863884 words of memory will be used on each GPU.
 ---------------------------------
 # MP2/6-311+g(d,p) counterpoise=3
 ---------------------------------
 1/38=1,62=3,172=1/1;
 2/12=2,17=6,18=5,40=1/2;
 1/38=1,53=2,62=3,63=1/22;
 3/5=4,6=6,7=111,11=9,25=1,30=1/1,2,3;
 4//1;
 5/5=2,38=5/2;
 8/10=2/1;
 9/16=-3/6;
 6/7=2,8=2,9=2,10=2/1;
 1/53=2,62=3,63=1/22;
 3/5=7,6=11,7=111,11=9,25=1,30=1,82=7/1,2,3;
 4//1;
 5/5=2,38=5/2;
 8/10=2/1;
 9/16=-3/6;
 6/7=2,8=2,9=2,10=2/1;
 1/53=2,62=3,63=1/22(-6);
 99/5=1,9=1/99;
 ------------
 one_3_frag_2
 ------------
 Symbolic Z-matrix:
 Charge =  0 Multiplicity = 1 in supermolecule
 Charge =  0 Multiplicity = 1 in fragment      1.
 Charge =  0 Multiplicity = 1 in fragment      2.
 Charge =  0 Multiplicity = 1 in fragment      3.
 C(Fragment=1)        -1   -0.03214   1.38042   0.05308 
 C(Fragment=1)        -1   -1.23749   0.70046  -0.00786 
 C(Fragment=1)        -1   -1.23752  -0.70037  -0.06429 
 C(Fragment=1)        -1   -0.02414  -1.40145  -0.02709 
 C(Fragment=1)        -1    1.19764  -0.71015   0.01727 
 C(Fragment=1)        -1    1.20909   0.74867  -0.01794 
 O(Fragment=1)        -1    2.37441   1.39936   0.02605 
 O(Fragment=1)        -1    2.38021  -1.4044   -0.00303 
 H(Fragment=1)        -1   -2.17586  -1.2491    0. 
 H(Fragment=1)        -1   -2.17583   1.24922   0. 
 Mg(Fragment=1)       -1    3.63397  -0.01282  -0.03943 
 H(Fragment=1)        -1    0.00115   2.48713  -0.00203 
 H(Fragment=1)        -1    0.00094  -2.48723   0.06527 
 H(Fragment=2)        0     4.91849  -1.8127   -0.09823 
 H(Fragment=2)        0     5.49883  -1.34003  -0.10952 
 H(Fragment=3)        0     5.48569   1.32266  -0.00952 
 H(Fragment=3)        0     4.90458   1.79426   0.00857 
 
                          Input orientation:                          
 ---------------------------------------------------------------------
 Center     Atomic      Atomic             Coordinates (Angstroms)
 Number     Number       Type             X           Y           Z
 ---------------------------------------------------------------------
      1          6           0       -0.032144    1.380417    0.053083
      2          6           0       -1.237492    0.700458   -0.007861
      3          6           0       -1.237524   -0.700373   -0.064287
      4          6           0       -0.024136   -1.401453   -0.027093
      5          6           0        1.197643   -0.710151    0.017265
      6          6           0        1.209086    0.748674   -0.017937
      7          8           0        2.374408    1.399358    0.026050
      8          8           0        2.380206   -1.404400   -0.003030
      9          1           0       -2.175863   -1.249095    0.000000
     10          1           0       -2.175827    1.249217    0.000000
     11         12           0        3.633971   -0.012816   -0.039427
     12          1           0        0.001150    2.487129   -0.002033
     13          1           0        0.000938   -2.487226    0.065270
     14          1           0        4.918489   -1.812704   -0.098231
     15          1           0        5.498833   -1.340032   -0.109515
     16          1           0        5.485692    1.322656   -0.009523
     17          1           0        4.904583    1.794259    0.008571
 ---------------------------------------------------------------------
                    Distance matrix (angstroms):
                    1          2          3          4          5
     1  C    0.000000
     2  C    1.385252   0.000000
     3  C    2.407572   1.401967   0.000000
     4  C    2.783037   2.427063   1.401858   0.000000
     5  C    2.425723   2.814308   2.436552   1.404496   0.000000
     6  C    1.394559   2.447074   2.843903   2.478703   1.459295
     7  O    2.406778   3.679053   4.178885   3.687869   2.415550
     8  O    3.684805   4.185474   3.686106   2.404464   1.371440
     9  H    3.393034   2.163645   1.088903   2.157284   3.416329
    10  H    2.148350   1.087047   2.164589   3.414170   3.901246
    11  Mg   3.923016   4.923506   4.919839   3.912827   2.534795
    12  H    1.108584   2.174043   3.420286   3.888745   3.413879
    13  H    3.867804   3.420583   2.177939   1.089983   2.142989
    14  H    5.893020   6.649831   6.255792   4.960215   3.882481
    15  H    6.165954   7.039319   6.766810   5.523925   4.348915
    16  H    5.518493   6.751914   7.021202   6.146485   4.745565
    17  H    4.954243   6.238730   6.629779   5.874191   4.473651
                    6          7          8          9         10
     6  C    0.000000
     7  O    1.335403   0.000000
     8  O    2.451014   2.803915   0.000000
     9  H    3.930558   5.264974   4.558716   0.000000
    10  H    3.421769   4.552786   5.272488   2.498312   0.000000
    11  Mg   2.541731   1.893415   1.873435   5.940043   5.945421
    12  H    2.116976   2.610821   4.561130   4.324206   2.504328
    13  H    3.455082   4.554167   2.614975   2.505133   4.324763
    14  H    4.508522   4.099407   2.572675   7.117383   7.727505
    15  H    4.772107   4.157483   3.121108   7.676016   8.100408
    16  H    4.314961   3.112433   4.132907   8.081672   7.661877
    17  H    3.840657   2.560867   4.074805   7.706802   7.101363
                   11         12         13         14         15
    11  Mg   0.000000
    12  H    4.410047   0.000000
    13  H    4.396885   4.974810   0.000000
    14  H    2.212022   6.532843   4.966288   0.000000
    15  H    2.290005   6.699495   5.619026   0.748562   0.000000
    16  H    2.283254   5.606804   6.678572   3.187487   2.664597
    17  H    2.209588   4.952155   6.509997   3.608571   3.192312
                   16         17
    16  H    0.000000
    17  H    0.748615   0.000000
 Stoichiometry    C6H8MgO2
 Framework group  C1[X(C6H8MgO2)]
 Deg. of freedom    45
 Full point group                 C1      NOp   1
 Largest Abelian subgroup         C1      NOp   1
 Largest concise Abelian subgroup C1      NOp   1
                         Standard orientation:                         
 ---------------------------------------------------------------------
 Center     Atomic      Atomic             Coordinates (Angstroms)
 Number     Number       Type             X           Y           Z
 ---------------------------------------------------------------------
      1          6           0        1.388512   -1.378774    0.039981
      2          6           0        2.591671   -0.694504   -0.015752
      3          6           0        2.587444    0.706952   -0.053385
      4          6           0        1.372150    1.403885   -0.002852
      5          6           0        0.152540    0.708447    0.036198
      6          6           0        0.145224   -0.749803   -0.018529
      7          8           0       -1.018050   -1.404455    0.020512
      8          8           0       -1.032098    1.399411    0.029056
      9          1           0        3.524389    1.257530    0.015208
     10          1           0        3.531619   -1.240546   -0.018299
     11         12           0       -2.281923    0.004745   -0.021929
     12          1           0        1.358256   -2.484741   -0.029864
     13          1           0        1.344223    2.488244    0.104146
     14          1           0       -3.571857    1.801460   -0.052417
     15          1           0       -4.150858    1.327270   -0.068155
     16          1           0       -4.129644   -1.336468   -0.003926
     17          1           0       -3.547110   -1.806554    0.005955
 ---------------------------------------------------------------------
 Rotational constants (GHZ):           3.1633419           1.1120334           0.8231320
 Counterpoise: doing full-system calculation.
 Standard basis: 6-311+G(d,p) (5D, 7F)
 There are   263 symmetry adapted cartesian basis functions of A   symmetry.
 There are   254 symmetry adapted basis functions of A   symmetry.
   254 basis functions,   402 primitive gaussians,   263 cartesian basis functions
    36 alpha electrons       36 beta electrons
       nuclear repulsion energy       486.3341829089 Hartrees.
 NAtoms=   17 NActive=   17 NUniq=   17 SFac= 1.00D+00 NAtFMM=   60 NAOKFM=F Big=F
 Integral buffers will be    131072 words long.
 Raffenetti 1 integral format.
 Two-electron integral symmetry is turned on.
 One-electron integrals computed using PRISM.
 NBasis=   254 RedAO= T EigKep=  1.89D-06  NBF=   254
 NBsUse=   254 1.00D-06 EigRej= -1.00D+00 NBFU=   254
 ExpMin= 1.46D-02 ExpMax= 4.39D+04 ExpMxC= 1.51D+03 IAcc=3 IRadAn=         5 AccDes= 0.00D+00
 Harris functional with IExCor=  205 and IRadAn=       5 diagonalized for initial guess.
 HarFok:  IExCor=  205 AccDes= 0.00D+00 IRadAn=         5 IDoV= 1 UseB2=F ITyADJ=14
 ICtDFT=  3500011 ScaDFX=  1.000000  1.000000  1.000000  1.000000
 FoFCou: FMM=F IPFlag=           0 FMFlag=      100000 FMFlg1=           0
         NFxFlg=           0 DoJE=T BraDBF=F KetDBF=T FulRan=T
         wScrn=  0.000000 ICntrl=       500 IOpCl=  0 I1Cent=   200000004 NGrid=           0
         NMat0=    1 NMatS0=      1 NMatT0=    0 NMatD0=    1 NMtDS0=    0 NMtDT0=    0
 Petite list used in FoFCou.
 Requested convergence on RMS density matrix=1.00D-08 within 128 cycles.
 Requested convergence on MAX density matrix=1.00D-06.
 Requested convergence on             energy=1.00D-06.
 No special actions if energy rises.
 SCF Done:  E(RHF) =  -581.259418631     A.U. after   16 cycles
            NFock= 16  Conv=0.76D-08     -V/T= 2.0012
 ExpMin= 1.46D-02 ExpMax= 4.39D+04 ExpMxC= 1.51D+03 IAcc=3 IRadAn=         5 AccDes= 0.00D+00
 HarFok:  IExCor=  205 AccDes= 0.00D+00 IRadAn=         5 IDoV=-2 UseB2=F ITyADJ=14
 ICtDFT= 12500011 ScaDFX=  1.000000  1.000000  1.000000  1.000000
 Range of M.O.s used for correlation:    14   254
 NBasis=   254 NAE=    36 NBE=    36 NFC=    13 NFV=     0
 NROrb=    241 NOA=    23 NOB=    23 NVA=   218 NVB=   218

 **** Warning!!: The largest alpha MO coefficient is  0.20177533D+03

 Fully in-core method, ICMem=  1240587796.
 JobTyp=1 Pass  1 fully in-core, NPsUse= 16.
 Spin components of T(2) and E(2):
     alpha-alpha T2 =       0.6114534596D-01 E2=     -0.1722611309D+00
     alpha-beta  T2 =       0.3234848524D+00 E2=     -0.9639367808D+00
     beta-beta   T2 =       0.6114534596D-01 E2=     -0.1722611309D+00
 ANorm=    0.1202404069D+01
 E2 =    -0.1308459043D+01 EUMP2 =    -0.58256787767368D+03

 **********************************************************************

            Population analysis using the SCF Density.

 **********************************************************************

 Orbital symmetries:
       Occupied  (A) (A) (A) (A) (A) (A) (A) (A) (A) (A) (A) (A)
                 (A) (A) (A) (A) (A) (A) (A) (A) (A) (A) (A) (A)
                 (A) (A) (A) (A) (A) (A) (A) (A) (A) (A) (A) (A)
       Virtual   (A) (A) (A) (A) (A) (A) (A) (A) (A) (A) (A) (A)
                 (A) (A) (A) (A) (A) (A) (A) (A) (A) (A) (A) (A)
                 (A) (A) (A) (A) (A) (A) (A) (A) (A) (A) (A) (A)
                 (A) (A) (A) (A) (A) (A) (A) (A) (A) (A) (A) (A)
                 (A) (A) (A) (A) (A) (A) (A) (A) (A) (A) (A) (A)
                 (A) (A) (A) (A) (A) (A) (A) (A) (A) (A) (A) (A)
                 (A) (A) (A) (A) (A) (A) (A) (A) (A) (A) (A) (A)
                 (A) (A) (A) (A) (A) (A) (A) (A) (A) (A) (A) (A)
                 (A) (A) (A) (A) (A) (A) (A) (A) (A) (A) (A) (A)
                 (A) (A) (A) (A) (A) (A) (A) (A) (A) (A) (A) (A)
                 (A) (A) (A) (A) (A) (A) (A) (A) (A) (A) (A) (A)
                 (A) (A) (A) (A) (A) (A) (A) (A) (A) (A) (A) (A)
                 (A) (A) (A) (A) (A) (A) (A) (A) (A) (A) (A) (A)
                 (A) (A) (A) (A) (A) (A) (A) (A) (A) (A) (A) (A)
                 (A) (A) (A) (A) (A) (A) (A) (A) (A) (A) (A) (A)
                 (A) (A) (A) (A) (A) (A) (A) (A) (A) (A) (A) (A)
                 (A) (A) (A) (A) (A) (A) (A) (A) (A) (A) (A) (A)
                 (A) (A) (A) (A) (A) (A) (A) (A) (A) (A) (A) (A)
                 (A) (A)
 The electronic state is 1-A.
 Alpha  occ. eigenvalues --  -49.08388 -20.50170 -20.49823 -11.25365 -11.25155
 Alpha  occ. eigenvalues --  -11.19322 -11.19205 -11.19032 -11.18823  -3.81554
 Alpha  occ. eigenvalues --   -2.33875  -2.33862  -2.33712  -1.31860  -1.27778
 Alpha  occ. eigenvalues --   -1.08653  -0.96178  -0.93256  -0.78098  -0.76406
 Alpha  occ. eigenvalues --   -0.73187  -0.70677  -0.64656  -0.62621  -0.60477
 Alpha  occ. eigenvalues --   -0.56086  -0.54727  -0.54056  -0.49557  -0.48763
 Alpha  occ. eigenvalues --   -0.47614  -0.44646  -0.41793  -0.40687  -0.28389
 Alpha  occ. eigenvalues --   -0.24194
 Alpha virt. eigenvalues --    0.00396   0.01536   0.02886   0.03216   0.04247
 Alpha virt. eigenvalues --    0.06175   0.07261   0.10407   0.10791   0.12392
 Alpha virt. eigenvalues --    0.12489   0.13323   0.13693   0.14664   0.15256
 Alpha virt. eigenvalues --    0.16252   0.16506   0.17152   0.18102   0.18964
 Alpha virt. eigenvalues --    0.19303   0.20217   0.20238   0.20991   0.21826
 Alpha virt. eigenvalues --    0.22280   0.22355   0.24762   0.24848   0.25542
 Alpha virt. eigenvalues --    0.25730   0.26957   0.27559   0.30002   0.30719
 Alpha virt. eigenvalues --    0.31489   0.31543   0.32595   0.32991   0.34445
 Alpha virt. eigenvalues --    0.36311   0.36615   0.37166   0.37932   0.38196
 Alpha virt. eigenvalues --    0.39396   0.40332   0.41623   0.43043   0.44211
 Alpha virt. eigenvalues --    0.46551   0.46679   0.49194   0.49534   0.51093
 Alpha virt. eigenvalues --    0.51275   0.53175   0.54291   0.55461   0.56986
 Alpha virt. eigenvalues --    0.58142   0.59208   0.61829   0.62855   0.65928
 Alpha virt. eigenvalues --    0.66716   0.68675   0.74112   0.74498   0.75279
 Alpha virt. eigenvalues --    0.76117   0.77340   0.78083   0.78578   0.80399
 Alpha virt. eigenvalues --    0.82111   0.83363   0.84502   0.86802   0.87105
 Alpha virt. eigenvalues --    0.87910   0.92159   0.93242   0.94329   0.95166
 Alpha virt. eigenvalues --    0.96360   0.98359   1.01503   1.02349   1.05174
 Alpha virt. eigenvalues --    1.06275   1.09230   1.10769   1.13291   1.14335
 Alpha virt. eigenvalues --    1.16492   1.18439   1.20948   1.22894   1.25371
 Alpha virt. eigenvalues --    1.26660   1.29578   1.33332   1.34969   1.37195
 Alpha virt. eigenvalues --    1.40297   1.41981   1.43553   1.45280   1.48588
 Alpha virt. eigenvalues --    1.52565   1.54094   1.56175   1.59598   1.63230
 Alpha virt. eigenvalues --    1.64784   1.72562   1.75989   1.77281   1.79703
 Alpha virt. eigenvalues --    1.83335   1.83722   1.84994   1.87038   1.89998
 Alpha virt. eigenvalues --    1.93684   1.96513   1.97351   1.98862   1.99200
 Alpha virt. eigenvalues --    2.01218   2.03731   2.04166   2.05665   2.11301
 Alpha virt. eigenvalues --    2.11514   2.15758   2.18496   2.19666   2.21717
 Alpha virt. eigenvalues --    2.22271   2.24841   2.25425   2.27606   2.30641
 Alpha virt. eigenvalues --    2.32224   2.34765   2.35948   2.39745   2.42486
 Alpha virt. eigenvalues --    2.51265   2.55735   2.58152   2.65772   2.67750
 Alpha virt. eigenvalues --    2.79120   2.79548   2.80898   2.89844   2.90325
 Alpha virt. eigenvalues --    2.95544   3.03246   3.03961   3.06650   3.07701
 Alpha virt. eigenvalues --    3.08391   3.11439   3.16508   3.19098   3.19823
 Alpha virt. eigenvalues --    3.23277   3.30328   3.31137   3.34300   3.36202
 Alpha virt. eigenvalues --    3.42806   3.48929   3.51212   3.51657   3.54543
 Alpha virt. eigenvalues --    3.55206   3.60675   3.61854   3.63558   3.68507
 Alpha virt. eigenvalues --    3.71917   3.82121   3.86173   3.88057   3.97057
 Alpha virt. eigenvalues --    3.99133   4.00400   4.07896   4.17039   4.47211
 Alpha virt. eigenvalues --    4.48933   4.58951   4.68321   4.69839   5.26977
 Alpha virt. eigenvalues --    5.64285   5.68669   5.79538   5.90360   6.24717
 Alpha virt. eigenvalues --    6.38092   6.40660   6.69784   6.71809  24.78618
 Alpha virt. eigenvalues --   25.03426  25.13720  25.21229  25.28930  25.37292
 Alpha virt. eigenvalues --   51.71910  51.77369 105.80737
          Condensed to atoms (all electrons):
               1          2          3          4          5          6
     1  C   18.755897  -1.832990   1.421299  -5.620949  -4.000434  -2.193302
     2  C   -1.832990   6.523882  -0.096039   1.373233  -1.423686   1.352909
     3  C    1.421299  -0.096039   6.000369  -1.591315   0.992314  -1.065327
     4  C   -5.620949   1.373233  -1.591315  18.713085  -1.722862  -4.296233
     5  C   -4.000434  -1.423686   0.992314  -1.722862  16.796571  -5.626145
     6  C   -2.193302   1.352909  -1.065327  -4.296233  -5.626145  17.230072
     7  O   -0.519584  -0.024579   0.015557   0.018511   0.206437   0.277843
     8  O    0.061816  -0.004137   0.029400  -0.684368   0.395419   0.189168
     9  H   -0.031249   0.018563   0.388834  -0.038747   0.005805   0.021004
    10  H   -0.023120   0.387482   0.015507  -0.033361   0.022689  -0.002805
    11  Mg   0.022682   0.006596  -0.006322   0.131117  -0.054246  -0.219658
    12  H    0.324124  -0.010496   0.000289  -0.012668   0.013687   0.050191
    13  H   -0.000729  -0.008186   0.005428   0.294207   0.073752   0.006626
    14  H   -0.003564   0.000571  -0.000915   0.009939   0.001192  -0.002625
    15  H   -0.002992   0.000549  -0.000444   0.005419  -0.001013  -0.001716
    16  H    0.006584  -0.000729   0.000597  -0.002845  -0.000514  -0.000480
    17  H    0.011825  -0.001781   0.000847  -0.003611   0.003967  -0.003453
               7          8          9         10         11         12
     1  C   -0.519584   0.061816  -0.031249  -0.023120   0.022682   0.324124
     2  C   -0.024579  -0.004137   0.018563   0.387482   0.006596  -0.010496
     3  C    0.015557   0.029400   0.388834   0.015507  -0.006322   0.000289
     4  C    0.018511  -0.684368  -0.038747  -0.033361   0.131117  -0.012668
     5  C    0.206437   0.395419   0.005805   0.022689  -0.054246   0.013687
     6  C    0.277843   0.189168   0.021004  -0.002805  -0.219658   0.050191
     7  O    8.355425   0.009457   0.000132  -0.000388   0.191880  -0.005633
     8  O    0.009457   8.336711  -0.000570   0.000089   0.185048  -0.000038
     9  H    0.000132  -0.000570   0.525904  -0.004994   0.000465  -0.000184
    10  H   -0.000388   0.000089  -0.004994   0.524222   0.000360  -0.005678
    11  Mg   0.191880   0.185048   0.000465   0.000360  10.559425   0.002057
    12  H   -0.005633  -0.000038  -0.000184  -0.005678   0.002057   0.524382
    13  H   -0.000062  -0.006117  -0.004615  -0.000148   0.002204   0.000021
    14  H    0.000917  -0.006962  -0.000000   0.000000   0.040424   0.000000
    15  H    0.001183  -0.008815  -0.000000   0.000000   0.043552   0.000000
    16  H   -0.010161   0.001101  -0.000000  -0.000000   0.043393  -0.000003
    17  H   -0.008255   0.000706   0.000000  -0.000000   0.038664  -0.000023
              13         14         15         16         17
     1  C   -0.000729  -0.003564  -0.002992   0.006584   0.011825
     2  C   -0.008186   0.000571   0.000549  -0.000729  -0.001781
     3  C    0.005428  -0.000915  -0.000444   0.000597   0.000847
     4  C    0.294207   0.009939   0.005419  -0.002845  -0.003611
     5  C    0.073752   0.001192  -0.001013  -0.000514   0.003967
     6  C    0.006626  -0.002625  -0.001716  -0.000480  -0.003453
     7  O   -0.000062   0.000917   0.001183  -0.010161  -0.008255
     8  O   -0.006117  -0.006962  -0.008815   0.001101   0.000706
     9  H   -0.004615  -0.000000  -0.000000  -0.000000   0.000000
    10  H   -0.000148   0.000000   0.000000  -0.000000  -0.000000
    11  Mg   0.002204   0.040424   0.043552   0.043393   0.038664
    12  H    0.000021   0.000000   0.000000  -0.000003  -0.000023
    13  H    0.514307  -0.000021  -0.000002   0.000000   0.000000
    14  H   -0.000021   0.477763   0.376722  -0.001003  -0.000424
    15  H   -0.000002   0.376722   0.601226  -0.001982  -0.001009
    16  H    0.000000  -0.001003  -0.001982   0.598562   0.376563
    17  H    0.000000  -0.000424  -0.001009   0.376563   0.478972
 Mulliken charges:
               1
     1  C   -0.375313
     2  C   -0.261162
     3  C   -0.110079
     4  C   -0.538553
     5  C    0.317066
     6  C    0.283931
     7  O   -0.508682
     8  O   -0.497907
     9  H    0.119652
    10  H    0.120145
    11  Mg   1.012358
    12  H    0.119972
    13  H    0.123333
    14  H    0.107987
    15  H   -0.010677
    16  H   -0.009084
    17  H    0.107012
 Sum of Mulliken charges =  -0.00000
 Mulliken charges with hydrogens summed into heavy atoms:
               1
     1  C   -0.255340
     2  C   -0.141017
     3  C    0.009573
     4  C   -0.415220
     5  C    0.317066
     6  C    0.283931
     7  O   -0.508682
     8  O   -0.497907
    11  Mg   1.207597
         Mulliken charges condensed to fragments:
      1     -0.195238
      2      0.097310
      3      0.097928
 Electronic spatial extent (au):  <R**2>=           1408.5098
 Charge=              0.0000 electrons
 Dipole moment (field-independent basis, Debye):
    X=            -10.1394    Y=             -0.0806    Z=             -0.2011  Tot=             10.1417
 Quadrupole moment (field-independent basis, Debye-Ang):
   XX=            -22.2586   YY=            -64.6145   ZZ=            -60.9794
   XY=              0.2273   XZ=              0.9328   YZ=              0.3982
 Traceless Quadrupole moment (field-independent basis, Debye-Ang):
   XX=             27.0255   YY=            -15.3303   ZZ=            -11.6952
   XY=              0.2273   XZ=              0.9328   YZ=              0.3982
 Octapole moment (field-independent basis, Debye-Ang**2):
  XXX=           -153.9345  YYY=              0.6117  ZZZ=             -0.0395  XYY=             -3.9448
  XXY=             -0.3774  XXZ=             -0.6196  XZZ=            -23.1664  YZZ=             -0.1629
  YYZ=              0.1377  XYZ=              1.1050
 Hexadecapole moment (field-independent basis, Debye-Ang**3):
 XXXX=           -880.6551 YYYY=           -509.6441 ZZZZ=            -72.2235 XXXY=             -0.9425
 XXXZ=              7.5928 YYYX=              1.5375 YYYZ=              2.8701 ZZZX=              1.9188
 ZZZY=              0.6907 XXYY=           -270.3589 XXZZ=           -248.3943 YYZZ=           -107.4653
 XXYZ=              0.9779 YYXZ=              1.8427 ZZXY=              0.0394
 N-N= 4.863341829089D+02 E-N=-2.348671436179D+03  KE= 5.805371552991D+02
 CPIOFr:  IOpCl= 0 IRwI=-1 IRwCP=  731 ICalc= -1 LCPTot=      101349 Len1MO=      263944 IndFrg=      101349
 CPIOFr:  IOpCl= 0 IRwI=-1 IRwCP=  731 ICalc=  0 LCPTot=      101349 Len1MO=      263944 IndFrg=      365293
 Counterpoise: doing calculation for fragment   1 using the basis set of the full-system, NewBq=T
 Basis read from rwf:  (5D, 7F)
 There are   263 symmetry adapted cartesian basis functions of A   symmetry.
 There are   254 symmetry adapted basis functions of A   symmetry.
   254 basis functions,   402 primitive gaussians,   263 cartesian basis functions
    34 alpha electrons       34 beta electrons
       nuclear repulsion energy       447.3216547615 Hartrees.
 NAtoms=   17 NActive=   17 NUniq=   17 SFac= 1.00D+00 NAtFMM=   60 NAOKFM=F Big=F
 Integral buffers will be    131072 words long.
 Raffenetti 1 integral format.
 Two-electron integral symmetry is turned on.
 One-electron integrals computed using PRISM.
 NBasis=   254 RedAO= T EigKep=  1.89D-06  NBF=   254
 NBsUse=   254 1.00D-06 EigRej= -1.00D+00 NBFU=   254
 ExpMin= 1.46D-02 ExpMax= 4.39D+04 ExpMxC= 1.51D+03 IAcc=3 IRadAn=         5 AccDes= 0.00D+00
 Harris functional with IExCor=  205 and IRadAn=       5 diagonalized for initial guess.
 HarFok:  IExCor=  205 AccDes= 0.00D+00 IRadAn=         5 IDoV= 1 UseB2=F ITyADJ=14
 ICtDFT=  3500011 ScaDFX=  1.000000  1.000000  1.000000  1.000000
 FoFCou: FMM=F IPFlag=           0 FMFlag=      100000 FMFlg1=           0
         NFxFlg=           0 DoJE=T BraDBF=F KetDBF=T FulRan=T
         wScrn=  0.000000 ICntrl=       500 IOpCl=  0 I1Cent=   200000004 NGrid=           0
         NMat0=    1 NMatS0=      1 NMatT0=    0 NMatD0=    1 NMtDS0=    0 NMtDT0=    0
 Petite list used in FoFCou.
 Requested convergence on RMS density matrix=1.00D-08 within 128 cycles.
 Requested convergence on MAX density matrix=1.00D-06.
 Requested convergence on             energy=1.00D-06.
 No special actions if energy rises.
 SCF Done:  E(RHF) =  -578.979465608     A.U. after   17 cycles
            NFock= 17  Conv=0.95D-08     -V/T= 2.0013
 ExpMin= 1.46D-02 ExpMax= 4.39D+04 ExpMxC= 1.51D+03 IAcc=3 IRadAn=         5 AccDes= 0.00D+00
 HarFok:  IExCor=  205 AccDes= 0.00D+00 IRadAn=         5 IDoV=-2 UseB2=F ITyADJ=14
 ICtDFT= 12500011 ScaDFX=  1.000000  1.000000  1.000000  1.000000
 Range of M.O.s used for correlation:    14   254
 NBasis=   254 NAE=    34 NBE=    34 NFC=    13 NFV=     0
 NROrb=    241 NOA=    21 NOB=    21 NVA=   220 NVB=   220

 **** Warning!!: The largest alpha MO coefficient is  0.21788573D+03

 Fully in-core method, ICMem=  1240484174.
 JobTyp=1 Pass  1 fully in-core, NPsUse= 16.
 Spin components of T(2) and E(2):
     alpha-alpha T2 =       0.6112897288D-01 E2=     -0.1718437921D+00
     alpha-beta  T2 =       0.3055645047D+00 E2=     -0.9077522116D+00
     beta-beta   T2 =       0.6112897288D-01 E2=     -0.1718437921D+00
 ANorm=    0.1194915248D+01
 E2 =    -0.1251439796D+01 EUMP2 =    -0.58023090540348D+03

 **********************************************************************

            Population analysis using the SCF Density.

 **********************************************************************

 Orbital symmetries:
       Occupied  (A) (A) (A) (A) (A) (A) (A) (A) (A) (A) (A) (A)
                 (A) (A) (A) (A) (A) (A) (A) (A) (A) (A) (A) (A)
                 (A) (A) (A) (A) (A) (A) (A) (A) (A) (A)
       Virtual   (A) (A) (A) (A) (A) (A) (A) (A) (A) (A) (A) (A)
                 (A) (A) (A) (A) (A) (A) (A) (A) (A) (A) (A) (A)
                 (A) (A) (A) (A) (A) (A) (A) (A) (A) (A) (A) (A)
                 (A) (A) (A) (A) (A) (A) (A) (A) (A) (A) (A) (A)
                 (A) (A) (A) (A) (A) (A) (A) (A) (A) (A) (A) (A)
                 (A) (A) (A) (A) (A) (A) (A) (A) (A) (A) (A) (A)
                 (A) (A) (A) (A) (A) (A) (A) (A) (A) (A) (A) (A)
                 (A) (A) (A) (A) (A) (A) (A) (A) (A) (A) (A) (A)
                 (A) (A) (A) (A) (A) (A) (A) (A) (A) (A) (A) (A)
                 (A) (A) (A) (A) (A) (A) (A) (A) (A) (A) (A) (A)
                 (A) (A) (A) (A) (A) (A) (A) (A) (A) (A) (A) (A)
                 (A) (A) (A) (A) (A) (A) (A) (A) (A) (A) (A) (A)
                 (A) (A) (A) (A) (A) (A) (A) (A) (A) (A) (A) (A)
                 (A) (A) (A) (A) (A) (A) (A) (A) (A) (A) (A) (A)
                 (A) (A) (A) (A) (A) (A) (A) (A) (A) (A) (A) (A)
                 (A) (A) (A) (A) (A) (A) (A) (A) (A) (A) (A) (A)
                 (A) (A) (A) (A) (A) (A) (A) (A) (A) (A) (A) (A)
                 (A) (A) (A) (A) (A) (A) (A) (A) (A) (A) (A) (A)
                 (A) (A) (A) (A)
 The electronic state is 1-A.
 Alpha  occ. eigenvalues --  -49.10904 -20.51059 -20.50753 -11.25897 -11.25689
 Alpha  occ. eigenvalues --  -11.19728 -11.19613 -11.19486 -11.19272  -3.83956
 Alpha  occ. eigenvalues --   -2.36228  -2.36217  -2.36051  -1.32554  -1.28490
 Alpha  occ. eigenvalues --   -1.09089  -0.96610  -0.93700  -0.78555  -0.76757
 Alpha  occ. eigenvalues --   -0.65346  -0.63152  -0.61162  -0.56732  -0.55324
 Alpha  occ. eigenvalues --   -0.54564  -0.50063  -0.49267  -0.48336  -0.45179
 Alpha  occ. eigenvalues --   -0.42270  -0.41260  -0.28824  -0.24730
 Alpha virt. eigenvalues --   -0.06062   0.01561   0.01747   0.02238   0.04352
 Alpha virt. eigenvalues --    0.06183   0.07020   0.08655   0.10439   0.10996
 Alpha virt. eigenvalues --    0.12430   0.13624   0.14685   0.15352   0.15551
 Alpha virt. eigenvalues --    0.15969   0.16555   0.16976   0.17238   0.18026
 Alpha virt. eigenvalues --    0.19072   0.19706   0.19977   0.20886   0.21488
 Alpha virt. eigenvalues --    0.22402   0.23280   0.24103   0.24349   0.24606
 Alpha virt. eigenvalues --    0.24697   0.26087   0.26701   0.28310   0.29375
 Alpha virt. eigenvalues --    0.30215   0.30857   0.31278   0.32545   0.33274
 Alpha virt. eigenvalues --    0.33507   0.36140   0.36665   0.37744   0.37959
 Alpha virt. eigenvalues --    0.38852   0.39497   0.41671   0.42885   0.43786
 Alpha virt. eigenvalues --    0.46333   0.46699   0.47191   0.48150   0.49679
 Alpha virt. eigenvalues --    0.51444   0.53222   0.53488   0.55090   0.55760
 Alpha virt. eigenvalues --    0.57979   0.58820   0.59074   0.63540   0.65431
 Alpha virt. eigenvalues --    0.71233   0.72899   0.74604   0.74779   0.75028
 Alpha virt. eigenvalues --    0.75963   0.76945   0.78518   0.80048   0.81413
 Alpha virt. eigenvalues --    0.82316   0.84557   0.85412   0.86490   0.86809
 Alpha virt. eigenvalues --    0.87107   0.91645   0.92824   0.93735   0.94291
 Alpha virt. eigenvalues --    0.95081   0.97440   0.99592   1.01167   1.01522
 Alpha virt. eigenvalues --    1.02791   1.05393   1.06397   1.08855   1.10572
 Alpha virt. eigenvalues --    1.13174   1.14071   1.16203   1.18614   1.20576
 Alpha virt. eigenvalues --    1.23166   1.26434   1.33059   1.34603   1.36775
 Alpha virt. eigenvalues --    1.39561   1.40903   1.41639   1.48543   1.49805
 Alpha virt. eigenvalues --    1.52306   1.53732   1.57207   1.59939   1.64302
 Alpha virt. eigenvalues --    1.64633   1.68311   1.70337   1.76985   1.82972
 Alpha virt. eigenvalues --    1.83773   1.86649   1.89305   1.89600   1.93816
 Alpha virt. eigenvalues --    1.94672   1.96984   1.99478   2.00156   2.03816
 Alpha virt. eigenvalues --    2.05312   2.10658   2.14394   2.17194   2.18857
 Alpha virt. eigenvalues --    2.21141   2.21634   2.24326   2.25581   2.27469
 Alpha virt. eigenvalues --    2.28077   2.29856   2.30368   2.31843   2.32931
 Alpha virt. eigenvalues --    2.34723   2.35895   2.36707   2.40875   2.47343
 Alpha virt. eigenvalues --    2.50880   2.55800   2.57766   2.65333   2.67100
 Alpha virt. eigenvalues --    2.78741   2.79414   2.81310   2.85976   2.89662
 Alpha virt. eigenvalues --    2.90937   3.02848   3.03510   3.06239   3.07355
 Alpha virt. eigenvalues --    3.07978   3.10944   3.16075   3.18619   3.19343
 Alpha virt. eigenvalues --    3.22876   3.29705   3.30691   3.33607   3.35652
 Alpha virt. eigenvalues --    3.41815   3.47511   3.50704   3.51223   3.59461
 Alpha virt. eigenvalues --    3.61117   3.62656   3.67831   3.71063   3.81098
 Alpha virt. eigenvalues --    3.83593   3.85561   3.87429   3.96863   3.98461
 Alpha virt. eigenvalues --    4.07399   4.16534   4.25306   4.25409   4.46820
 Alpha virt. eigenvalues --    4.48505   4.58524   4.67755   4.69290   4.91164
 Alpha virt. eigenvalues --    4.93040   5.26530   5.63524   5.67913   5.78756
 Alpha virt. eigenvalues --    5.89586   6.24019   6.37448   6.38408   6.67761
 Alpha virt. eigenvalues --    6.69721  24.78147  25.02917  25.13250  25.20778
 Alpha virt. eigenvalues --   25.28484  25.36863  51.71003  51.76470 105.78258
          Condensed to atoms (all electrons):
               1          2          3          4          5          6
     1  C   18.125641  -1.699580   1.300975  -5.267454  -4.547884  -1.361439
     2  C   -1.699580   6.530118  -0.084774   1.276415  -1.326728   1.202416
     3  C    1.300975  -0.084774   5.947260  -1.422567   0.841124  -0.917317
     4  C   -5.267454   1.276415  -1.422567  18.198570  -1.039950  -4.858422
     5  C   -4.547884  -1.326728   0.841124  -1.039950  16.542392  -5.476050
     6  C   -1.361439   1.202416  -0.917317  -4.858422  -5.476050  16.777629
     7  O   -0.608100  -0.011255   0.003319   0.054450   0.208434   0.325725
     8  O    0.106087  -0.016742   0.041837  -0.775111   0.432189   0.196346
     9  H   -0.035223   0.020426   0.386416  -0.032439   0.000837   0.024671
    10  H   -0.016267   0.384643   0.016447  -0.036749   0.025821  -0.007113
    11  Mg   0.046290   0.001241  -0.009820   0.147021  -0.058128  -0.237925
    12  H    0.335283  -0.013655   0.002083  -0.015320   0.017544   0.038694
    13  H   -0.003915  -0.006382   0.002197   0.303981   0.063585   0.011164
    14  H    0.000177  -0.000089  -0.000162   0.000903   0.002572  -0.001571
    15  H   -0.000029   0.000068  -0.000009   0.000019  -0.001305   0.000378
    16  H    0.000089   0.000045   0.000015   0.000000  -0.001140   0.000217
    17  H    0.000681  -0.000366   0.000010   0.000147   0.001493  -0.000182
               7          8          9         10         11         12
     1  C   -0.608100   0.106087  -0.035223  -0.016267   0.046290   0.335283
     2  C   -0.011255  -0.016742   0.020426   0.384643   0.001241  -0.013655
     3  C    0.003319   0.041837   0.386416   0.016447  -0.009820   0.002083
     4  C    0.054450  -0.775111  -0.032439  -0.036749   0.147021  -0.015320
     5  C    0.208434   0.432189   0.000837   0.025821  -0.058128   0.017544
     6  C    0.325725   0.196346   0.024671  -0.007113  -0.237925   0.038694
     7  O    8.313922   0.010001   0.000113  -0.000283   0.195199  -0.004573
     8  O    0.010001   8.296973  -0.000457   0.000071   0.186308  -0.000017
     9  H    0.000113  -0.000457   0.523470  -0.004945   0.000470  -0.000179
    10  H   -0.000283   0.000071  -0.004945   0.521923   0.000360  -0.005696
    11  Mg   0.195199   0.186308   0.000470   0.000360  10.563090   0.002056
    12  H   -0.004573  -0.000017  -0.000179  -0.005696   0.002056   0.521182
    13  H   -0.000069  -0.005103  -0.004636  -0.000143   0.002233   0.000022
    14  H   -0.000054   0.003393  -0.000000   0.000000   0.003374  -0.000000
    15  H    0.000057  -0.001076   0.000000  -0.000000  -0.001368   0.000000
    16  H   -0.001218   0.000127  -0.000000   0.000000  -0.000888   0.000002
    17  H    0.004045  -0.000161   0.000000  -0.000000   0.002597  -0.000013
              13         14         15         16         17
     1  C   -0.003915   0.000177  -0.000029   0.000089   0.000681
     2  C   -0.006382  -0.000089   0.000068   0.000045  -0.000366
     3  C    0.002197  -0.000162  -0.000009   0.000015   0.000010
     4  C    0.303981   0.000903   0.000019   0.000000   0.000147
     5  C    0.063585   0.002572  -0.001305  -0.001140   0.001493
     6  C    0.011164  -0.001571   0.000378   0.000217  -0.000182
     7  O   -0.000069  -0.000054   0.000057  -0.001218   0.004045
     8  O   -0.005103   0.003393  -0.001076   0.000127  -0.000161
     9  H   -0.004636  -0.000000   0.000000  -0.000000   0.000000
    10  H   -0.000143   0.000000  -0.000000   0.000000  -0.000000
    11  Mg   0.002233   0.003374  -0.001368  -0.000888   0.002597
    12  H    0.000022  -0.000000   0.000000   0.000002  -0.000013
    13  H    0.511180  -0.000013   0.000002   0.000000  -0.000000
    14  H   -0.000013   0.001122  -0.000659  -0.000039   0.000045
    15  H    0.000002  -0.000659   0.000653   0.000054  -0.000051
    16  H    0.000000  -0.000039   0.000054   0.000619  -0.000626
    17  H   -0.000000   0.000045  -0.000051  -0.000626   0.001104
 Mulliken charges:
               1
     1  C   -0.375333
     2  C   -0.255802
     3  C   -0.107034
     4  C   -0.533493
     5  C    0.315195
     6  C    0.282779
     7  O   -0.489715
     8  O   -0.474665
     9  H    0.121474
    10  H    0.121932
    11  Mg   1.157891
    12  H    0.122587
    13  H    0.125897
    14  H   -0.009001
    15  H    0.003266
    16  H    0.002743
    17  H   -0.008722
 Sum of Mulliken charges =  -0.00000
 Mulliken charges with hydrogens summed into heavy atoms:
               1
     1  C   -0.252746
     2  C   -0.133870
     3  C    0.014440
     4  C   -0.407595
     5  C    0.315195
     6  C    0.282779
     7  O   -0.489715
     8  O   -0.474665
    11  Mg   1.146177
         Mulliken charges condensed to fragments:
      1      0.011714
      2     -0.005735
      3     -0.005979
 Electronic spatial extent (au):  <R**2>=           1155.8689
 Charge=             -0.0000 electrons
 Dipole moment (field-independent basis, Debye):
    X=             -9.3635    Y=             -0.0754    Z=             -0.1932  Tot=              9.3658
 Quadrupole moment (field-independent basis, Debye-Ang):
   XX=            -21.8897   YY=            -63.9330   ZZ=            -56.9441
   XY=              0.2317   XZ=              0.8913   YZ=              0.4412
 Traceless Quadrupole moment (field-independent basis, Debye-Ang):
   XX=             25.6992   YY=            -16.3441   ZZ=             -9.3552
   XY=              0.2317   XZ=              0.8913   YZ=              0.4412
 Octapole moment (field-independent basis, Debye-Ang**2):
  XXX=           -173.6268  YYY=              0.6165  ZZZ=             -0.3561  XYY=             -6.0290
  XXY=             -0.4390  XXZ=             -0.5331  XZZ=            -38.0870  YZZ=             -0.1753
  YYZ=              0.0952  XYZ=              0.9420
 Hexadecapole moment (field-independent basis, Debye-Ang**3):
 XXXX=           -661.5101 YYYY=           -470.3553 ZZZZ=            -68.1793 XXXY=             -0.7432
 XXXZ=              7.5839 YYYX=              1.4609 YYYZ=              2.6290 ZZZX=              3.1601
 ZZZY=              0.1447 XXYY=           -244.6592 XXZZ=           -188.6220 YYZZ=            -96.9175
 XXYZ=              1.4038 YYXZ=              2.0736 ZZXY=              0.0307
 N-N= 4.473216547615D+02 E-N=-2.266106692497D+03  KE= 5.782408430011D+02
 CPIOFr:  IOpCl= 0 IRwI=-1 IRwCP=  731 ICalc=  1 LCPTot=      101349 Len1MO=      263944 IndFrg=      629237
 Counterpoise: doing calculation for fragment   2 using the basis set of the full-system, NewBq=T
 Basis read from rwf:  (5D, 7F)
 There are   263 symmetry adapted cartesian basis functions of A   symmetry.
 There are   254 symmetry adapted basis functions of A   symmetry.
   254 basis functions,   402 primitive gaussians,   263 cartesian basis functions
     1 alpha electrons        1 beta electrons
       nuclear repulsion energy         0.7069248749 Hartrees.
 NAtoms=   17 NActive=   17 NUniq=   17 SFac= 1.00D+00 NAtFMM=   60 NAOKFM=F Big=F
 Integral buffers will be    131072 words long.
 Raffenetti 1 integral format.
 Two-electron integral symmetry is turned on.
 One-electron integrals computed using PRISM.
 NBasis=   254 RedAO= T EigKep=  1.89D-06  NBF=   254
 NBsUse=   254 1.00D-06 EigRej= -1.00D+00 NBFU=   254
 ExpMin= 1.46D-02 ExpMax= 4.39D+04 ExpMxC= 1.51D+03 IAcc=3 IRadAn=         5 AccDes= 0.00D+00
 Harris functional with IExCor=  205 and IRadAn=       5 diagonalized for initial guess.
 HarFok:  IExCor=  205 AccDes= 0.00D+00 IRadAn=         5 IDoV= 1 UseB2=F ITyADJ=14
 ICtDFT=  3500011 ScaDFX=  1.000000  1.000000  1.000000  1.000000
 FoFCou: FMM=F IPFlag=           0 FMFlag=      100000 FMFlg1=           0
         NFxFlg=           0 DoJE=T BraDBF=F KetDBF=T FulRan=T
         wScrn=  0.000000 ICntrl=       500 IOpCl=  0 I1Cent=   200000004 NGrid=           0
         NMat0=    1 NMatS0=      1 NMatT0=    0 NMatD0=    1 NMtDS0=    0 NMtDT0=    0
 Petite list used in FoFCou.
 Requested convergence on RMS density matrix=1.00D-08 within 128 cycles.
 Requested convergence on MAX density matrix=1.00D-06.
 Requested convergence on             energy=1.00D-06.
 No special actions if energy rises.
 SCF Done:  E(RHF) =  -1.13246156336     A.U. after    7 cycles
            NFock=  7  Conv=0.24D-08     -V/T= 2.0159
 Range of M.O.s used for correlation:     1   254
 NBasis=   254 NAE=     1 NBE=     1 NFC=     0 NFV=     0
 NROrb=    254 NOA=     1 NOB=     1 NVA=   253 NVB=   253

 **** Warning!!: The largest alpha MO coefficient is  0.14833583D+03

 Fully in-core method, ICMem=  1239335653.
 JobTyp=1 Pass  1 fully in-core, NPsUse= 16.
 Spin components of T(2) and E(2):
     alpha-alpha T2 =       0.0000000000D+00 E2=      0.0000000000D+00
     alpha-beta  T2 =       0.9511424331D-02 E2=     -0.2828867763D-01
     beta-beta   T2 =       0.0000000000D+00 E2=      0.0000000000D+00
 ANorm=    0.1004744457D+01
 E2 =    -0.2828867763D-01 EUMP2 =    -0.11607502409895D+01

 **********************************************************************

            Population analysis using the SCF Density.

 **********************************************************************

 Orbital symmetries:
       Occupied  (A)
       Virtual   (A) (A) (A) (A) (A) (A) (A) (A) (A) (A) (A) (A)
                 (A) (A) (A) (A) (A) (A) (A) (A) (A) (A) (A) (A)
                 (A) (A) (A) (A) (A) (A) (A) (A) (A) (A) (A) (A)
                 (A) (A) (A) (A) (A) (A) (A) (A) (A) (A) (A) (A)
                 (A) (A) (A) (A) (A) (A) (A) (A) (A) (A) (A) (A)
                 (A) (A) (A) (A) (A) (A) (A) (A) (A) (A) (A) (A)
                 (A) (A) (A) (A) (A) (A) (A) (A) (A) (A) (A) (A)
                 (A) (A) (A) (A) (A) (A) (A) (A) (A) (A) (A) (A)
                 (A) (A) (A) (A) (A) (A) (A) (A) (A) (A) (A) (A)
                 (A) (A) (A) (A) (A) (A) (A) (A) (A) (A) (A) (A)
                 (A) (A) (A) (A) (A) (A) (A) (A) (A) (A) (A) (A)
                 (A) (A) (A) (A) (A) (A) (A) (A) (A) (A) (A) (A)
                 (A) (A) (A) (A) (A) (A) (A) (A) (A) (A) (A) (A)
                 (A) (A) (A) (A) (A) (A) (A) (A) (A) (A) (A) (A)
                 (A) (A) (A) (A) (A) (A) (A) (A) (A) (A) (A) (A)
                 (A) (A) (A) (A) (A) (A) (A) (A) (A) (A) (A) (A)
                 (A) (A) (A) (A) (A) (A) (A) (A) (A) (A) (A) (A)
                 (A) (A) (A) (A) (A) (A) (A) (A) (A) (A) (A) (A)
                 (A) (A) (A) (A) (A) (A) (A) (A) (A) (A) (A) (A)
                 (A) (A) (A) (A) (A) (A) (A) (A) (A) (A) (A) (A)
                 (A) (A) (A) (A) (A) (A) (A) (A) (A) (A) (A) (A)
                 (A)
 The electronic state is 1-A.
 Alpha  occ. eigenvalues --   -0.59203
 Alpha virt. eigenvalues --    0.01998   0.02809   0.03069   0.03256   0.06130
 Alpha virt. eigenvalues --    0.07213   0.07964   0.09272   0.09895   0.10135
 Alpha virt. eigenvalues --    0.10987   0.11230   0.12504   0.12911   0.13593
 Alpha virt. eigenvalues --    0.15151   0.16019   0.16276   0.16989   0.17988
 Alpha virt. eigenvalues --    0.18952   0.19179   0.20069   0.21318   0.21735
 Alpha virt. eigenvalues --    0.22627   0.23397   0.24062   0.24999   0.25346
 Alpha virt. eigenvalues --    0.25625   0.25846   0.27323   0.27490   0.28235
 Alpha virt. eigenvalues --    0.29275   0.30210   0.30752   0.31385   0.32781
 Alpha virt. eigenvalues --    0.35329   0.35686   0.36045   0.36909   0.37688
 Alpha virt. eigenvalues --    0.39099   0.39498   0.39901   0.43099   0.44623
 Alpha virt. eigenvalues --    0.45758   0.46832   0.47214   0.48102   0.48785
 Alpha virt. eigenvalues --    0.49751   0.54108   0.55118   0.57405   0.59114
 Alpha virt. eigenvalues --    0.59348   0.60351   0.61436   0.63123   0.66499
 Alpha virt. eigenvalues --    0.69138   0.70689   0.73293   0.73700   0.74164
 Alpha virt. eigenvalues --    0.74959   0.76562   0.78078   0.79353   0.81851
 Alpha virt. eigenvalues --    0.84384   0.89084   0.90272   0.90453   0.91986
 Alpha virt. eigenvalues --    0.94491   0.97145   0.98215   0.98918   0.99834
 Alpha virt. eigenvalues --    1.00759   1.02418   1.06985   1.11028   1.11598
 Alpha virt. eigenvalues --    1.13500   1.14327   1.16689   1.18041   1.20707
 Alpha virt. eigenvalues --    1.25347   1.27250   1.32386   1.37317   1.38804
 Alpha virt. eigenvalues --    1.40033   1.42314   1.42730   1.49613   1.50167
 Alpha virt. eigenvalues --    1.53303   1.53810   1.55415   1.56496   1.66429
 Alpha virt. eigenvalues --    1.67951   1.69851   1.71096   1.72325   1.73460
 Alpha virt. eigenvalues --    1.75875   1.76381   1.77906   1.85843   1.86574
 Alpha virt. eigenvalues --    1.87796   1.92086   1.92255   1.97240   1.99306
 Alpha virt. eigenvalues --    2.02593   2.04037   2.05237   2.07060   2.08201
 Alpha virt. eigenvalues --    2.10310   2.12479   2.19152   2.22192   2.23123
 Alpha virt. eigenvalues --    2.30376   2.30501   2.32033   2.34368   2.37460
 Alpha virt. eigenvalues --    2.38153   2.38848   2.39121   2.42138   2.42768
 Alpha virt. eigenvalues --    2.47153   2.51365   2.54232   2.56386   2.57007
 Alpha virt. eigenvalues --    2.57468   2.61310   2.70637   2.72888   2.80552
 Alpha virt. eigenvalues --    2.81495   2.83665   2.89591   2.91760   2.93174
 Alpha virt. eigenvalues --    2.94895   2.95701   3.00034   3.04809   3.09626
 Alpha virt. eigenvalues --    3.11048   3.12824   3.14055   3.23713   3.29017
 Alpha virt. eigenvalues --    3.30662   3.32062   3.33693   3.35952   3.36714
 Alpha virt. eigenvalues --    3.47497   3.49055   3.49421   3.52115   3.54567
 Alpha virt. eigenvalues --    3.58797   3.65700   3.74005   3.76742   3.92882
 Alpha virt. eigenvalues --    4.02917   4.19454   4.23974   4.28696   4.39466
 Alpha virt. eigenvalues --    4.44710   4.59710   4.61065   4.63171   4.63683
 Alpha virt. eigenvalues --    4.82282   4.84742   4.90074   4.92068   4.93795
 Alpha virt. eigenvalues --    4.95197   5.03804   5.06384   5.32256   5.34785
 Alpha virt. eigenvalues --    5.64862   5.88011   7.02734   7.06092   7.10257
 Alpha virt. eigenvalues --    7.12697   7.21983   7.22677   7.35973   7.67465
 Alpha virt. eigenvalues --    7.72447   7.73356   7.75807   7.80963   7.82530
 Alpha virt. eigenvalues --    7.93638   7.98313   8.07181   8.15056   8.33131
 Alpha virt. eigenvalues --    8.90168   9.66117  10.08308  10.19878  10.21913
 Alpha virt. eigenvalues --   10.25794  10.31291  13.49637  13.54037  13.67454
 Alpha virt. eigenvalues --   13.77217  14.05489  14.15000  18.56468  18.66832
 Alpha virt. eigenvalues --   24.89405  25.16959  25.17674  42.02562  69.74760
 Alpha virt. eigenvalues --   69.89878  69.98588  69.99963  70.02828  70.06817
 Alpha virt. eigenvalues --  139.79051 139.80857 308.96955
          Condensed to atoms (all electrons):
               1          2          3          4          5          6
     1  C    0.136033  -0.052879   0.015119  -0.105686   0.095776  -0.072331
     2  C   -0.052879   0.021392  -0.004615   0.035126  -0.032587   0.028280
     3  C    0.015119  -0.004615   0.006411  -0.032119   0.027620  -0.009534
     4  C   -0.105686   0.035126  -0.032119   0.179119  -0.155779   0.059700
     5  C    0.095776  -0.032587   0.027620  -0.155779   0.139276  -0.057350
     6  C   -0.072331   0.028280  -0.009534   0.059700  -0.057350   0.047481
     7  O   -0.002643   0.000823  -0.000280   0.002333  -0.001476  -0.000483
     8  O   -0.002995   0.000992  -0.001335   0.006580  -0.007658   0.003809
     9  H    0.000259  -0.000070   0.000091  -0.000461   0.000345  -0.000159
    10  H    0.000028  -0.000011   0.000003  -0.000020   0.000017  -0.000016
    11  Mg  -0.011466   0.003809  -0.001764   0.012845  -0.010055   0.001603
    12  H    0.000276  -0.000116   0.000010  -0.000105   0.000104  -0.000144
    13  H    0.000575  -0.000152   0.000439  -0.002144   0.001842  -0.000412
    14  H   -0.002062   0.000464  -0.000734   0.009342   0.003113  -0.009457
    15  H   -0.001155   0.000250  -0.000308   0.004401   0.004746  -0.007988
    16  H    0.000015  -0.000004   0.000001  -0.000015  -0.000015   0.000054
    17  H   -0.000015   0.000004  -0.000001   0.000011   0.000013  -0.000053
               7          8          9         10         11         12
     1  C   -0.002643  -0.002995   0.000259   0.000028  -0.011466   0.000276
     2  C    0.000823   0.000992  -0.000070  -0.000011   0.003809  -0.000116
     3  C   -0.000280  -0.001335   0.000091   0.000003  -0.001764   0.000010
     4  C    0.002333   0.006580  -0.000461  -0.000020   0.012845  -0.000105
     5  C   -0.001476  -0.007658   0.000345   0.000017  -0.010055   0.000104
     6  C   -0.000483   0.003809  -0.000159  -0.000016   0.001603  -0.000144
     7  O    0.000578  -0.000221  -0.000000  -0.000000   0.001333  -0.000005
     8  O   -0.000221   0.002314  -0.000008  -0.000000  -0.000748  -0.000002
     9  H   -0.000000  -0.000008   0.000004   0.000000  -0.000006   0.000000
    10  H   -0.000000  -0.000000   0.000000   0.000000  -0.000001   0.000000
    11  Mg   0.001333  -0.000748  -0.000006  -0.000001   0.004353  -0.000020
    12  H   -0.000005  -0.000002   0.000000   0.000000  -0.000020   0.000001
    13  H   -0.000005  -0.000126   0.000005   0.000000  -0.000069   0.000000
    14  H    0.000863  -0.014738  -0.000000  -0.000000   0.005611  -0.000000
    15  H    0.000746  -0.008822  -0.000000  -0.000000   0.002835  -0.000000
    16  H   -0.000014   0.000012   0.000000   0.000000  -0.000029   0.000000
    17  H    0.000016  -0.000006  -0.000000  -0.000000   0.000028  -0.000000
              13         14         15         16         17
     1  C    0.000575  -0.002062  -0.001155   0.000015  -0.000015
     2  C   -0.000152   0.000464   0.000250  -0.000004   0.000004
     3  C    0.000439  -0.000734  -0.000308   0.000001  -0.000001
     4  C   -0.002144   0.009342   0.004401  -0.000015   0.000011
     5  C    0.001842   0.003113   0.004746  -0.000015   0.000013
     6  C   -0.000412  -0.009457  -0.007988   0.000054  -0.000053
     7  O   -0.000005   0.000863   0.000746  -0.000014   0.000016
     8  O   -0.000126  -0.014738  -0.008822   0.000012  -0.000006
     9  H    0.000005  -0.000000  -0.000000   0.000000  -0.000000
    10  H    0.000000  -0.000000  -0.000000   0.000000  -0.000000
    11  Mg  -0.000069   0.005611   0.002835  -0.000029   0.000028
    12  H    0.000000  -0.000000  -0.000000   0.000000  -0.000000
    13  H    0.000048  -0.000021  -0.000005   0.000000  -0.000000
    14  H   -0.000021   0.604977   0.424167  -0.000117   0.000029
    15  H   -0.000005   0.424167   0.572614  -0.000204   0.000050
    16  H    0.000000  -0.000117  -0.000204   0.000002  -0.000002
    17  H   -0.000000   0.000029   0.000050  -0.000002   0.000003
 Mulliken charges:
               1
     1  C    0.003151
     2  C   -0.000705
     3  C    0.000997
     4  C   -0.013130
     5  C   -0.007934
     6  C    0.016998
     7  O   -0.001566
     8  O    0.022953
     9  H    0.000000
    10  H    0.000000
    11  Mg  -0.008262
    12  H    0.000000
    13  H    0.000024
    14  H   -0.021437
    15  H    0.008671
    16  H    0.000315
    17  H   -0.000077
 Sum of Mulliken charges =  -0.00000
 Mulliken charges with hydrogens summed into heavy atoms:
               1
     1  C    0.003151
     2  C   -0.000705
     3  C    0.000997
     4  C   -0.013106
     5  C   -0.007934
     6  C    0.016998
     7  O   -0.001566
     8  O    0.022953
    11  Mg  -0.020789
         Mulliken charges condensed to fragments:
      1      0.012528
      2     -0.012766
      3      0.000238
 Electronic spatial extent (au):  <R**2>=            129.1761
 Charge=             -0.0000 electrons
 Dipole moment (field-independent basis, Debye):
    X=             -0.0026    Y=              0.0028    Z=              0.0012  Tot=              0.0040
 Quadrupole moment (field-independent basis, Debye-Ang):
   XX=             -1.6910   YY=             -1.8422   ZZ=             -2.0910
   XY=              0.2996   XZ=              0.0060   YZ=              0.0104
 Traceless Quadrupole moment (field-independent basis, Debye-Ang):
   XX=              0.1837   YY=              0.0325   ZZ=             -0.2162
   XY=              0.2996   XZ=              0.0060   YZ=              0.0104
 Octapole moment (field-independent basis, Debye-Ang**2):
  XXX=             19.7105  YYY=             -8.6755  ZZZ=              0.3805  XYY=              8.0872
  XXY=             -5.0257  XXZ=              0.0407  XZZ=              8.0704  YZZ=             -3.2724
  YYZ=              0.1419  XYZ=             -0.0420
 Hexadecapole moment (field-independent basis, Debye-Ang**3):
 XXXX=           -155.1285 YYYY=            -29.6586 ZZZZ=             -2.1318 XXXY=             44.5006
 XXXZ=             -0.8131 YYYX=             35.6029 YYYZ=              0.5899 ZZZX=             -1.4767
 ZZZY=              0.5901 XXYY=            -39.9732 XXZZ=            -31.9351 YYZZ=             -5.8888
 XXYZ=              0.3316 YYXZ=             -0.5814 ZZXY=             12.5658
 N-N= 7.069248748848D-01 E-N=-3.609462214769D+00  KE= 1.114758716277D+00
 CPIOFr:  IOpCl= 0 IRwI=-1 IRwCP=  731 ICalc=  2 LCPTot=      101349 Len1MO=      263944 IndFrg=      893181
 Counterpoise: doing calculation for fragment   3 using the basis set of the full-system, NewBq=T
 Basis read from rwf:  (5D, 7F)
 There are   263 symmetry adapted cartesian basis functions of A   symmetry.
 There are   254 symmetry adapted basis functions of A   symmetry.
   254 basis functions,   402 primitive gaussians,   263 cartesian basis functions
     1 alpha electrons        1 beta electrons
       nuclear repulsion energy         0.7068749555 Hartrees.
 NAtoms=   17 NActive=   17 NUniq=   17 SFac= 1.00D+00 NAtFMM=   60 NAOKFM=F Big=F
 Integral buffers will be    131072 words long.
 Raffenetti 1 integral format.
 Two-electron integral symmetry is turned on.
 One-electron integrals computed using PRISM.
 NBasis=   254 RedAO= T EigKep=  1.89D-06  NBF=   254
 NBsUse=   254 1.00D-06 EigRej= -1.00D+00 NBFU=   254
 ExpMin= 1.46D-02 ExpMax= 4.39D+04 ExpMxC= 1.51D+03 IAcc=3 IRadAn=         5 AccDes= 0.00D+00
 Harris functional with IExCor=  205 and IRadAn=       5 diagonalized for initial guess.
 HarFok:  IExCor=  205 AccDes= 0.00D+00 IRadAn=         5 IDoV= 1 UseB2=F ITyADJ=14
 ICtDFT=  3500011 ScaDFX=  1.000000  1.000000  1.000000  1.000000
 FoFCou: FMM=F IPFlag=           0 FMFlag=      100000 FMFlg1=           0
         NFxFlg=           0 DoJE=T BraDBF=F KetDBF=T FulRan=T
         wScrn=  0.000000 ICntrl=       500 IOpCl=  0 I1Cent=   200000004 NGrid=           0
         NMat0=    1 NMatS0=      1 NMatT0=    0 NMatD0=    1 NMtDS0=    0 NMtDT0=    0
 Petite list used in FoFCou.
 Requested convergence on RMS density matrix=1.00D-08 within 128 cycles.
 Requested convergence on MAX density matrix=1.00D-06.
 Requested convergence on             energy=1.00D-06.
 No special actions if energy rises.
 SCF Done:  E(RHF) =  -1.13246142699     A.U. after    7 cycles
            NFock=  7  Conv=0.20D-08     -V/T= 2.0159
 Range of M.O.s used for correlation:     1   254
 NBasis=   254 NAE=     1 NBE=     1 NFC=     0 NFV=     0
 NROrb=    254 NOA=     1 NOB=     1 NVA=   253 NVB=   253

 **** Warning!!: The largest alpha MO coefficient is  0.14009463D+03

 Fully in-core method, ICMem=  1239335653.
 JobTyp=1 Pass  1 fully in-core, NPsUse= 16.
 Spin components of T(2) and E(2):
     alpha-alpha T2 =       0.0000000000D+00 E2=      0.0000000000D+00
     alpha-beta  T2 =       0.9513598932D-02 E2=     -0.2829114705D-01
     beta-beta   T2 =       0.0000000000D+00 E2=      0.0000000000D+00
 ANorm=    0.1004745539D+01
 E2 =    -0.2829114705D-01 EUMP2 =    -0.11607525740470D+01

 **********************************************************************

            Population analysis using the SCF Density.

 **********************************************************************

 Orbital symmetries:
       Occupied  (A)
       Virtual   (A) (A) (A) (A) (A) (A) (A) (A) (A) (A) (A) (A)
                 (A) (A) (A) (A) (A) (A) (A) (A) (A) (A) (A) (A)
                 (A) (A) (A) (A) (A) (A) (A) (A) (A) (A) (A) (A)
                 (A) (A) (A) (A) (A) (A) (A) (A) (A) (A) (A) (A)
                 (A) (A) (A) (A) (A) (A) (A) (A) (A) (A) (A) (A)
                 (A) (A) (A) (A) (A) (A) (A) (A) (A) (A) (A) (A)
                 (A) (A) (A) (A) (A) (A) (A) (A) (A) (A) (A) (A)
                 (A) (A) (A) (A) (A) (A) (A) (A) (A) (A) (A) (A)
                 (A) (A) (A) (A) (A) (A) (A) (A) (A) (A) (A) (A)
                 (A) (A) (A) (A) (A) (A) (A) (A) (A) (A) (A) (A)
                 (A) (A) (A) (A) (A) (A) (A) (A) (A) (A) (A) (A)
                 (A) (A) (A) (A) (A) (A) (A) (A) (A) (A) (A) (A)
                 (A) (A) (A) (A) (A) (A) (A) (A) (A) (A) (A) (A)
                 (A) (A) (A) (A) (A) (A) (A) (A) (A) (A) (A) (A)
                 (A) (A) (A) (A) (A) (A) (A) (A) (A) (A) (A) (A)
                 (A) (A) (A) (A) (A) (A) (A) (A) (A) (A) (A) (A)
                 (A) (A) (A) (A) (A) (A) (A) (A) (A) (A) (A) (A)
                 (A) (A) (A) (A) (A) (A) (A) (A) (A) (A) (A) (A)
                 (A) (A) (A) (A) (A) (A) (A) (A) (A) (A) (A) (A)
                 (A) (A) (A) (A) (A) (A) (A) (A) (A) (A) (A) (A)
                 (A) (A) (A) (A) (A) (A) (A) (A) (A) (A) (A) (A)
                 (A)
 The electronic state is 1-A.
 Alpha  occ. eigenvalues --   -0.59202
 Alpha virt. eigenvalues --    0.01999   0.02804   0.03068   0.03264   0.06131
 Alpha virt. eigenvalues --    0.07211   0.07963   0.09254   0.09882   0.10176
 Alpha virt. eigenvalues --    0.10976   0.11225   0.12472   0.12850   0.13650
 Alpha virt. eigenvalues --    0.15143   0.15864   0.16423   0.17010   0.18019
 Alpha virt. eigenvalues --    0.18935   0.19176   0.20067   0.21314   0.21755
 Alpha virt. eigenvalues --    0.22573   0.23390   0.24143   0.25066   0.25407
 Alpha virt. eigenvalues --    0.25604   0.25879   0.27205   0.27737   0.28261
 Alpha virt. eigenvalues --    0.29469   0.29668   0.30982   0.31525   0.32697
 Alpha virt. eigenvalues --    0.35198   0.35702   0.35975   0.36866   0.37668
 Alpha virt. eigenvalues --    0.39052   0.39488   0.39790   0.43112   0.44283
 Alpha virt. eigenvalues --    0.45890   0.46873   0.47402   0.48020   0.48924
 Alpha virt. eigenvalues --    0.49629   0.53948   0.55094   0.57555   0.58950
 Alpha virt. eigenvalues --    0.59426   0.60451   0.61298   0.63272   0.66389
 Alpha virt. eigenvalues --    0.69644   0.70668   0.73354   0.73792   0.73887
 Alpha virt. eigenvalues --    0.74968   0.76611   0.78100   0.79441   0.81924
 Alpha virt. eigenvalues --    0.84368   0.88894   0.90228   0.90736   0.92015
 Alpha virt. eigenvalues --    0.94312   0.96626   0.98179   0.98989   0.99801
 Alpha virt. eigenvalues --    1.00856   1.02655   1.06848   1.10915   1.11544
 Alpha virt. eigenvalues --    1.13545   1.14646   1.16610   1.17975   1.20597
 Alpha virt. eigenvalues --    1.25406   1.27177   1.32392   1.37309   1.38826
 Alpha virt. eigenvalues --    1.40879   1.41516   1.42691   1.49576   1.50188
 Alpha virt. eigenvalues --    1.53264   1.53757   1.55476   1.56472   1.66670
 Alpha virt. eigenvalues --    1.67915   1.69776   1.70953   1.72347   1.73539
 Alpha virt. eigenvalues --    1.75792   1.76621   1.77744   1.85913   1.86580
 Alpha virt. eigenvalues --    1.87700   1.92115   1.92308   1.97859   1.99312
 Alpha virt. eigenvalues --    2.02672   2.03371   2.05098   2.07205   2.08302
 Alpha virt. eigenvalues --    2.10370   2.12474   2.18376   2.22733   2.23149
 Alpha virt. eigenvalues --    2.30436   2.30580   2.31864   2.34621   2.37882
 Alpha virt. eigenvalues --    2.38032   2.38520   2.39331   2.41845   2.42789
 Alpha virt. eigenvalues --    2.47146   2.51366   2.54206   2.56485   2.56960
 Alpha virt. eigenvalues --    2.57465   2.61296   2.70654   2.72824   2.80467
 Alpha virt. eigenvalues --    2.82042   2.83254   2.89171   2.92061   2.93257
 Alpha virt. eigenvalues --    2.94758   2.95685   3.00025   3.05130   3.09550
 Alpha virt. eigenvalues --    3.10954   3.12822   3.14025   3.23724   3.29005
 Alpha virt. eigenvalues --    3.30624   3.32087   3.33709   3.35951   3.36629
 Alpha virt. eigenvalues --    3.47503   3.49099   3.49398   3.52119   3.54571
 Alpha virt. eigenvalues --    3.58793   3.65728   3.73967   3.76741   3.92915
 Alpha virt. eigenvalues --    4.02897   4.19365   4.23962   4.28435   4.39851
 Alpha virt. eigenvalues --    4.44590   4.59712   4.61087   4.63182   4.63654
 Alpha virt. eigenvalues --    4.82298   4.84803   4.90129   4.92031   4.93730
 Alpha virt. eigenvalues --    4.95194   5.03722   5.06387   5.32255   5.34762
 Alpha virt. eigenvalues --    5.64900   5.87963   7.02733   7.06093   7.10259
 Alpha virt. eigenvalues --    7.12694   7.21987   7.22671   7.35972   7.67462
 Alpha virt. eigenvalues --    7.72445   7.73370   7.75802   7.80983   7.82503
 Alpha virt. eigenvalues --    7.93629   7.98320   8.07185   8.15057   8.33129
 Alpha virt. eigenvalues --    8.90168   9.66116  10.08311  10.19888  10.21901
 Alpha virt. eigenvalues --   10.25805  10.31276  13.49670  13.54000  13.67462
 Alpha virt. eigenvalues --   13.77206  14.05576  14.14910  18.56503  18.66793
 Alpha virt. eigenvalues --   24.89408  25.16962  25.17677  42.02565  69.74760
 Alpha virt. eigenvalues --   69.89880  69.98595  69.99954  70.02840  70.06802
 Alpha virt. eigenvalues --  139.79083 139.80821 308.96957
          Condensed to atoms (all electrons):
               1          2          3          4          5          6
     1  C    0.194199  -0.038178   0.030110  -0.091352   0.062250  -0.176139
     2  C   -0.038178   0.008614  -0.003435   0.012837  -0.010450   0.033764
     3  C    0.030110  -0.003435   0.018700  -0.040227   0.021092  -0.030918
     4  C   -0.091352   0.012837  -0.040227   0.094235  -0.052198   0.088001
     5  C    0.062250  -0.010450   0.021092  -0.052198   0.035725  -0.060509
     6  C   -0.176139   0.033764  -0.030918   0.088001  -0.060509   0.165408
     7  O    0.007928  -0.001731   0.000925  -0.002900   0.003662  -0.008901
     8  O    0.002331  -0.000314   0.000824  -0.001847  -0.000293  -0.002194
     9  H    0.000031   0.000001   0.000025  -0.000058   0.000026  -0.000026
    10  H   -0.000383   0.000078  -0.000031   0.000180  -0.000118   0.000279
    11  Mg   0.011100  -0.001694   0.003145  -0.007371   0.001678  -0.010758
    12  H   -0.002384   0.000555  -0.000100   0.000505  -0.000493   0.002072
    13  H   -0.000112   0.000009  -0.000116   0.000231  -0.000111   0.000124
    14  H    0.000009  -0.000001   0.000003  -0.000005  -0.000039   0.000005
    15  H   -0.000013   0.000001  -0.000003   0.000006   0.000040  -0.000005
    16  H    0.004242  -0.000376   0.000237  -0.000634  -0.005684   0.003322
    17  H    0.009100  -0.000905   0.000432  -0.001261  -0.006137   0.000933
               7          8          9         10         11         12
     1  C    0.007928   0.002331   0.000031  -0.000383   0.011100  -0.002384
     2  C   -0.001731  -0.000314   0.000001   0.000078  -0.001694   0.000555
     3  C    0.000925   0.000824   0.000025  -0.000031   0.003145  -0.000100
     4  C   -0.002900  -0.001847  -0.000058   0.000180  -0.007371   0.000505
     5  C    0.003662  -0.000293   0.000026  -0.000118   0.001678  -0.000493
     6  C   -0.008901  -0.002194  -0.000026   0.000279  -0.010758   0.002072
     7  O    0.002469  -0.000173   0.000000  -0.000007  -0.000512  -0.000147
     8  O   -0.000173   0.000530   0.000000  -0.000000   0.001104  -0.000005
     9  H    0.000000   0.000000   0.000000  -0.000000   0.000000  -0.000000
    10  H   -0.000007  -0.000000  -0.000000   0.000003  -0.000004   0.000004
    11  Mg  -0.000512   0.001104   0.000000  -0.000004   0.003263  -0.000060
    12  H   -0.000147  -0.000005  -0.000000   0.000004  -0.000060   0.000055
    13  H   -0.000003  -0.000005  -0.000000   0.000000  -0.000018   0.000000
    14  H   -0.000005   0.000012   0.000000  -0.000000   0.000018  -0.000000
    15  H    0.000010  -0.000011  -0.000000   0.000000  -0.000020   0.000000
    16  H   -0.009028   0.000703   0.000000  -0.000000   0.001974  -0.000005
    17  H   -0.015098   0.000818   0.000000  -0.000000   0.004483  -0.000022
              13         14         15         16         17
     1  C   -0.000112   0.000009  -0.000013   0.004242   0.009100
     2  C    0.000009  -0.000001   0.000001  -0.000376  -0.000905
     3  C   -0.000116   0.000003  -0.000003   0.000237   0.000432
     4  C    0.000231  -0.000005   0.000006  -0.000634  -0.001261
     5  C   -0.000111  -0.000039   0.000040  -0.005684  -0.006137
     6  C    0.000124   0.000005  -0.000005   0.003322   0.000933
     7  O   -0.000003  -0.000005   0.000010  -0.009028  -0.015098
     8  O   -0.000005   0.000012  -0.000011   0.000703   0.000818
     9  H   -0.000000   0.000000  -0.000000   0.000000   0.000000
    10  H    0.000000  -0.000000   0.000000  -0.000000  -0.000000
    11  Mg  -0.000018   0.000018  -0.000020   0.001974   0.004483
    12  H    0.000000  -0.000000   0.000000  -0.000005  -0.000022
    13  H    0.000001  -0.000000   0.000000  -0.000000  -0.000000
    14  H   -0.000000   0.000003  -0.000001   0.000039   0.000022
    15  H    0.000000  -0.000001   0.000002  -0.000182  -0.000104
    16  H   -0.000000   0.000039  -0.000182   0.572005   0.424131
    17  H   -0.000000   0.000022  -0.000104   0.424131   0.605600
 Mulliken charges:
               1
     1  C   -0.012738
     2  C    0.001223
     3  C   -0.000662
     4  C    0.001858
     5  C    0.011560
     6  C   -0.004458
     7  O    0.023511
     8  O   -0.001480
     9  H    0.000000
    10  H    0.000000
    11  Mg  -0.006327
    12  H    0.000026
    13  H    0.000000
    14  H   -0.000059
    15  H    0.000280
    16  H    0.009255
    17  H   -0.021991
 Sum of Mulliken charges =  -0.00000
 Mulliken charges with hydrogens summed into heavy atoms:
               1
     1  C   -0.012712
     2  C    0.001224
     3  C   -0.000662
     4  C    0.001858
     5  C    0.011560
     6  C   -0.004458
     7  O    0.023511
     8  O   -0.001480
    11  Mg  -0.018841
         Mulliken charges condensed to fragments:
      1      0.012514
      2      0.000221
      3     -0.012735
 Electronic spatial extent (au):  <R**2>=            128.0477
 Charge=             -0.0000 electrons
 Dipole moment (field-independent basis, Debye):
    X=             -0.0025    Y=             -0.0027    Z=             -0.0007  Tot=              0.0038
 Quadrupole moment (field-independent basis, Debye-Ang):
   XX=             -1.6871   YY=             -1.8474   ZZ=             -2.0912
   XY=             -0.2995   XZ=              0.0099   YZ=             -0.0041
 Traceless Quadrupole moment (field-independent basis, Debye-Ang):
   XX=              0.1881   YY=              0.0279   ZZ=             -0.2159
   XY=             -0.2995   XZ=              0.0099   YZ=             -0.0041
 Octapole moment (field-independent basis, Debye-Ang**2):
  XXX=             19.5425  YYY=              8.7396  ZZZ=             -0.0082  XYY=              8.0672
  XXY=              5.0140  XXZ=             -0.0673  XZZ=              8.0243  YZZ=              3.2869
  YYZ=              0.0118  XYZ=              0.0043
 Hexadecapole moment (field-independent basis, Debye-Ang**3):
 XXXX=           -152.9176 YYYY=            -29.9825 ZZZZ=             -2.0848 XXXY=            -44.1908
 XXXZ=              0.3764 YYYX=            -35.6646 YYYZ=             -0.0201 ZZZX=              0.0294
 ZZZY=              0.0161 XXYY=            -39.7241 XXZZ=            -31.5719 YYZZ=             -5.9262
 XXYZ=              0.0303 YYXZ=             -0.0277 ZZXY=            -12.5471
 N-N= 7.068749555114D-01 E-N=-3.609335289237D+00  KE= 1.114700930456D+00
 CPIOFr:  IOpCl= 0 IRwI=-1 IRwCP=  731 ICalc=  3 LCPTot=      101349 Len1MO=      263944 IndFrg=     1157125
 Counterpoise: doing calculation for fragment   1 using the basis set of the fragment.
 Basis read from rwf:  (5D, 7F)
 There are   239 symmetry adapted cartesian basis functions of A   symmetry.
 There are   230 symmetry adapted basis functions of A   symmetry.
   230 basis functions,   370 primitive gaussians,   239 cartesian basis functions
    34 alpha electrons       34 beta electrons
       nuclear repulsion energy       447.3216547615 Hartrees.
 NAtoms=   17 NActive=   13 NUniq=   13 SFac= 1.00D+00 NAtFMM=   60 NAOKFM=F Big=F
 Integral buffers will be    131072 words long.
 Raffenetti 1 integral format.
 Two-electron integral symmetry is turned on.
 One-electron integrals computed using PRISM.
 NBasis=   230 RedAO= T EigKep=  2.02D-06  NBF=   230
 NBsUse=   230 1.00D-06 EigRej= -1.00D+00 NBFU=   230
 ExpMin= 1.46D-02 ExpMax= 4.39D+04 ExpMxC= 1.51D+03 IAcc=3 IRadAn=         5 AccDes= 0.00D+00
 Harris functional with IExCor=  205 and IRadAn=       5 diagonalized for initial guess.
 HarFok:  IExCor=  205 AccDes= 0.00D+00 IRadAn=         5 IDoV= 1 UseB2=F ITyADJ=14
 ICtDFT=  3500011 ScaDFX=  1.000000  1.000000  1.000000  1.000000
 FoFCou: FMM=F IPFlag=           0 FMFlag=      100000 FMFlg1=           0
         NFxFlg=           0 DoJE=T BraDBF=F KetDBF=T FulRan=T
         wScrn=  0.000000 ICntrl=       500 IOpCl=  0 I1Cent=   200000004 NGrid=           0
         NMat0=    1 NMatS0=      1 NMatT0=    0 NMatD0=    1 NMtDS0=    0 NMtDT0=    0
 Petite list used in FoFCou.
 Requested convergence on RMS density matrix=1.00D-08 within 128 cycles.
 Requested convergence on MAX density matrix=1.00D-06.
 Requested convergence on             energy=1.00D-06.
 No special actions if energy rises.
 SCF Done:  E(RHF) =  -578.979010102     A.U. after   17 cycles
            NFock= 17  Conv=0.65D-08     -V/T= 2.0013
 ExpMin= 1.46D-02 ExpMax= 4.39D+04 ExpMxC= 1.51D+03 IAcc=3 IRadAn=         5 AccDes= 0.00D+00
 HarFok:  IExCor=  205 AccDes= 0.00D+00 IRadAn=         5 IDoV=-2 UseB2=F ITyADJ=14
 ICtDFT= 12500011 ScaDFX=  1.000000  1.000000  1.000000  1.000000
 Range of M.O.s used for correlation:    14   230
 NBasis=   230 NAE=    34 NBE=    34 NFC=    13 NFV=     0
 NROrb=    217 NOA=    21 NOB=    21 NVA=   196 NVB=   196

 **** Warning!!: The largest alpha MO coefficient is  0.20960132D+03

 Fully in-core method, ICMem=   852042854.
 JobTyp=1 Pass  1 fully in-core, NPsUse= 16.
 Spin components of T(2) and E(2):
     alpha-alpha T2 =       0.6111340909D-01 E2=     -0.1717809131D+00
     alpha-beta  T2 =       0.3054909112D+00 E2=     -0.9073810644D+00
     beta-beta   T2 =       0.6111340909D-01 E2=     -0.1717809131D+00
 ANorm=    0.1194871428D+01
 E2 =    -0.1250942891D+01 EUMP2 =    -0.58022995299273D+03

 **********************************************************************

            Population analysis using the SCF Density.

 **********************************************************************

 Orbital symmetries:
       Occupied  (A) (A) (A) (A) (A) (A) (A) (A) (A) (A) (A) (A)
                 (A) (A) (A) (A) (A) (A) (A) (A) (A) (A) (A) (A)
                 (A) (A) (A) (A) (A) (A) (A) (A) (A) (A)
       Virtual   (A) (A) (A) (A) (A) (A) (A) (A) (A) (A) (A) (A)
                 (A) (A) (A) (A) (A) (A) (A) (A) (A) (A) (A) (A)
                 (A) (A) (A) (A) (A) (A) (A) (A) (A) (A) (A) (A)
                 (A) (A) (A) (A) (A) (A) (A) (A) (A) (A) (A) (A)
                 (A) (A) (A) (A) (A) (A) (A) (A) (A) (A) (A) (A)
                 (A) (A) (A) (A) (A) (A) (A) (A) (A) (A) (A) (A)
                 (A) (A) (A) (A) (A) (A) (A) (A) (A) (A) (A) (A)
                 (A) (A) (A) (A) (A) (A) (A) (A) (A) (A) (A) (A)
                 (A) (A) (A) (A) (A) (A) (A) (A) (A) (A) (A) (A)
                 (A) (A) (A) (A) (A) (A) (A) (A) (A) (A) (A) (A)
                 (A) (A) (A) (A) (A) (A) (A) (A) (A) (A) (A) (A)
                 (A) (A) (A) (A) (A) (A) (A) (A) (A) (A) (A) (A)
                 (A) (A) (A) (A) (A) (A) (A) (A) (A) (A) (A) (A)
                 (A) (A) (A) (A) (A) (A) (A) (A) (A) (A) (A) (A)
                 (A) (A) (A) (A) (A) (A) (A) (A) (A) (A) (A) (A)
                 (A) (A) (A) (A) (A) (A) (A) (A) (A) (A) (A) (A)
                 (A) (A) (A) (A)
 The electronic state is 1-A.
 Alpha  occ. eigenvalues --  -49.10951 -20.51064 -20.50758 -11.25898 -11.25691
 Alpha  occ. eigenvalues --  -11.19730 -11.19615 -11.19488 -11.19275  -3.84002
 Alpha  occ. eigenvalues --   -2.36274  -2.36262  -2.36096  -1.32561  -1.28496
 Alpha  occ. eigenvalues --   -1.09092  -0.96612  -0.93703  -0.78558  -0.76759
 Alpha  occ. eigenvalues --   -0.65349  -0.63156  -0.61165  -0.56736  -0.55328
 Alpha  occ. eigenvalues --   -0.54567  -0.50066  -0.49271  -0.48341  -0.45176
 Alpha  occ. eigenvalues --   -0.42274  -0.41264  -0.28826  -0.24734
 Alpha virt. eigenvalues --   -0.06051   0.01565   0.01796   0.02296   0.04389
 Alpha virt. eigenvalues --    0.06190   0.07214   0.08693   0.10495   0.11007
 Alpha virt. eigenvalues --    0.12470   0.13659   0.14714   0.15593   0.15918
 Alpha virt. eigenvalues --    0.16370   0.17200   0.17283   0.18249   0.18312
 Alpha virt. eigenvalues --    0.19363   0.20753   0.20912   0.21054   0.21632
 Alpha virt. eigenvalues --    0.24139   0.24448   0.24539   0.24689   0.25999
 Alpha virt. eigenvalues --    0.26803   0.28774   0.29184   0.30293   0.31144
 Alpha virt. eigenvalues --    0.31375   0.31898   0.32709   0.36023   0.36335
 Alpha virt. eigenvalues --    0.36678   0.37346   0.37769   0.39065   0.41154
 Alpha virt. eigenvalues --    0.43686   0.43789   0.44398   0.47034   0.47301
 Alpha virt. eigenvalues --    0.49710   0.50121   0.52861   0.53331   0.54988
 Alpha virt. eigenvalues --    0.55098   0.57559   0.58352   0.58841   0.64647
 Alpha virt. eigenvalues --    0.65489   0.71543   0.73370   0.74807   0.75390
 Alpha virt. eigenvalues --    0.75671   0.76762   0.77617   0.79977   0.80341
 Alpha virt. eigenvalues --    0.81591   0.82624   0.84823   0.86321   0.86799
 Alpha virt. eigenvalues --    0.89853   0.91585   0.92861   0.94038   0.95209
 Alpha virt. eigenvalues --    0.97473   1.00684   1.01810   1.03275   1.03592
 Alpha virt. eigenvalues --    1.08695   1.09935   1.12205   1.13687   1.15790
 Alpha virt. eigenvalues --    1.17904   1.19987   1.20547   1.26157   1.32733
 Alpha virt. eigenvalues --    1.34014   1.36687   1.39549   1.41462   1.41713
 Alpha virt. eigenvalues --    1.45069   1.48604   1.52296   1.55006   1.56486
 Alpha virt. eigenvalues --    1.59591   1.67733   1.70108   1.76739   1.82903
 Alpha virt. eigenvalues --    1.83925   1.86649   1.89558   1.92344   1.95342
 Alpha virt. eigenvalues --    1.96547   1.99908   2.03494   2.05150   2.09894
 Alpha virt. eigenvalues --    2.11125   2.13907   2.16287   2.21076   2.21340
 Alpha virt. eigenvalues --    2.24551   2.25466   2.30092   2.31604   2.35351
 Alpha virt. eigenvalues --    2.36896   2.38591   2.50249   2.53696   2.57703
 Alpha virt. eigenvalues --    2.65292   2.66627   2.78684   2.80475   2.89243
 Alpha virt. eigenvalues --    2.89707   3.02702   3.03291   3.06132   3.07222
 Alpha virt. eigenvalues --    3.07880   3.10787   3.15979   3.18575   3.19234
 Alpha virt. eigenvalues --    3.22675   3.29631   3.30627   3.33431   3.35595
 Alpha virt. eigenvalues --    3.41133   3.44522   3.49911   3.51201   3.58661
 Alpha virt. eigenvalues --    3.60959   3.62184   3.67796   3.70558   3.81146
 Alpha virt. eigenvalues --    3.84805   3.86201   3.87377   3.96236   3.98121
 Alpha virt. eigenvalues --    4.06996   4.16130   4.46702   4.48224   4.58285
 Alpha virt. eigenvalues --    4.66296   4.67785   5.26423   5.63322   5.67645
 Alpha virt. eigenvalues --    5.76609   5.88718   6.21177   6.36151   6.38195
 Alpha virt. eigenvalues --    6.59535   6.63576  24.77719  25.02671  25.12889
 Alpha virt. eigenvalues --   25.20712  25.28446  25.36838  51.69907  51.75213
 Alpha virt. eigenvalues --  105.72030
          Condensed to atoms (all electrons):
               1          2          3          4          5          6
     1  C   16.660590  -1.445976   1.087950  -4.810624  -4.795551  -0.111665
     2  C   -1.445976   6.412855   0.027503   1.149835  -1.119735   0.883402
     3  C    1.087950   0.027503   5.849165  -1.291709   0.652678  -0.648912
     4  C   -4.810624   1.149835  -1.291709  16.966873  -0.165788  -4.949882
     5  C   -4.795551  -1.119735   0.652678  -0.165788  16.200444  -5.812672
     6  C   -0.111665   0.883402  -0.648912  -4.949882  -5.812672  15.997785
     7  O   -0.701314  -0.000388   0.001045   0.075495   0.269574   0.308702
     8  O    0.132380  -0.017426   0.050201  -0.842911   0.379837   0.266483
     9  H   -0.032160   0.015902   0.390500  -0.033824   0.002088   0.022315
    10  H   -0.017226   0.387820   0.011858  -0.034162   0.023944  -0.005332
    11  Mg   0.030475  -0.016965  -0.017996   0.109186  -0.018924  -0.252670
    12  H    0.350039  -0.012399   0.001616  -0.012564   0.014570   0.023612
    13  H   -0.002434  -0.006671   0.002963   0.323557   0.046619   0.006928
               7          8          9         10         11         12
     1  C   -0.701314   0.132380  -0.032160  -0.017226   0.030475   0.350039
     2  C   -0.000388  -0.017426   0.015902   0.387820  -0.016965  -0.012399
     3  C    0.001045   0.050201   0.390500   0.011858  -0.017996   0.001616
     4  C    0.075495  -0.842911  -0.033824  -0.034162   0.109186  -0.012564
     5  C    0.269574   0.379837   0.002088   0.023944  -0.018924   0.014570
     6  C    0.308702   0.266483   0.022315  -0.005332  -0.252670   0.023612
     7  O    8.312945   0.010815   0.000105  -0.000233   0.222669  -0.003693
     8  O    0.010815   8.303285  -0.000404   0.000063   0.205944  -0.000049
     9  H    0.000105  -0.000404   0.523376  -0.004897   0.000387  -0.000178
    10  H   -0.000233   0.000063  -0.004897   0.521808   0.000298  -0.005723
    11  Mg   0.222669   0.205944   0.000387   0.000298  10.641108   0.001075
    12  H   -0.003693  -0.000049  -0.000178  -0.005723   0.001075   0.520592
    13  H   -0.000075  -0.004444  -0.004671  -0.000142   0.001224   0.000020
              13
     1  C   -0.002434
     2  C   -0.006671
     3  C    0.002963
     4  C    0.323557
     5  C    0.046619
     6  C    0.006928
     7  O   -0.000075
     8  O   -0.004444
     9  H   -0.004671
    10  H   -0.000142
    11  Mg   0.001224
    12  H    0.000020
    13  H    0.510600
 Mulliken charges:
               1
     1  C   -0.344484
     2  C   -0.257756
     3  C   -0.116862
     4  C   -0.483482
     5  C    0.322918
     6  C    0.271907
     7  O   -0.495649
     8  O   -0.483775
     9  H    0.121463
    10  H    0.121925
    11  Mg   1.094189
    12  H    0.123082
    13  H    0.126526
    14  H    0.000000
    15  H    0.000000
    16  H    0.000000
    17  H    0.000000
 Sum of Mulliken charges =  -0.00000
 Mulliken charges with hydrogens summed into heavy atoms:
               1
     1  C   -0.221402
     2  C   -0.135830
     3  C    0.004600
     4  C   -0.356956
     5  C    0.322918
     6  C    0.271907
     7  O   -0.495649
     8  O   -0.483775
    11  Mg   1.094189
         Mulliken charges condensed to fragments:
      1     -0.000000
      2      0.000000
      3      0.000000
 Electronic spatial extent (au):  <R**2>=           1155.8780
 Charge=             -0.0000 electrons
 Dipole moment (field-independent basis, Debye):
    X=             -9.3626    Y=             -0.0754    Z=             -0.1935  Tot=              9.3649
 Quadrupole moment (field-independent basis, Debye-Ang):
   XX=            -21.8788   YY=            -63.9404   ZZ=            -56.9599
   XY=              0.2307   XZ=              0.8918   YZ=              0.4412
 Traceless Quadrupole moment (field-independent basis, Debye-Ang):
   XX=             25.7143   YY=            -16.3474   ZZ=             -9.3669
   XY=              0.2307   XZ=              0.8918   YZ=              0.4412
 Octapole moment (field-independent basis, Debye-Ang**2):
  XXX=           -173.6251  YYY=              0.6175  ZZZ=             -0.3549  XYY=             -6.0227
  XXY=             -0.4361  XXZ=             -0.5324  XZZ=            -38.0515  YZZ=             -0.1751
  YYZ=              0.0938  XYZ=              0.9450
 Hexadecapole moment (field-independent basis, Debye-Ang**3):
 XXXX=           -661.3832 YYYY=           -470.4110 ZZZZ=            -68.2456 XXXY=             -0.7555
 XXXZ=              7.5859 YYYX=              1.4514 YYYZ=              2.6301 ZZZX=              3.1588
 ZZZY=              0.1424 XXYY=           -244.5611 XXZZ=           -188.7136 YYZZ=            -96.9515
 XXYZ=              1.3944 YYXZ=              2.0763 ZZXY=              0.0300
 N-N= 4.473216547615D+02 E-N=-2.266100039386D+03  KE= 5.782414987979D+02
 CPIOFr:  IOpCl= 0 IRwI=-1 IRwCP=  731 ICalc=  4 LCPTot=      101349 Len1MO=      263944 IndFrg=     1421069
 Counterpoise: doing calculation for fragment   2 using the basis set of the fragment.
 Basis read from rwf:  (5D, 7F)
 There are    12 symmetry adapted cartesian basis functions of A   symmetry.
 There are    12 symmetry adapted basis functions of A   symmetry.
    12 basis functions,    16 primitive gaussians,    12 cartesian basis functions
     1 alpha electrons        1 beta electrons
       nuclear repulsion energy         0.7069248749 Hartrees.
 NAtoms=   17 NActive=    2 NUniq=    2 SFac= 1.00D+00 NAtFMM=   60 NAOKFM=F Big=F
 Integral buffers will be    131072 words long.
 Raffenetti 1 integral format.
 Two-electron integral symmetry is turned on.
 One-electron integrals computed using PRISM.
 NBasis=    12 RedAO= T EigKep=  1.70D-02  NBF=    12
 NBsUse=    12 1.00D-06 EigRej= -1.00D+00 NBFU=    12
 ExpMin= 1.03D-01 ExpMax= 3.39D+01 ExpMxC= 3.39D+01 IAcc=3 IRadAn=         5 AccDes= 0.00D+00
 Harris functional with IExCor=  205 and IRadAn=       5 diagonalized for initial guess.
 HarFok:  IExCor=  205 AccDes= 0.00D+00 IRadAn=         5 IDoV= 1 UseB2=F ITyADJ=14
 ICtDFT=  3500011 ScaDFX=  1.000000  1.000000  1.000000  1.000000
 FoFCou: FMM=F IPFlag=           0 FMFlag=      100000 FMFlg1=           0
         NFxFlg=           0 DoJE=T BraDBF=F KetDBF=T FulRan=T
         wScrn=  0.000000 ICntrl=       500 IOpCl=  0 I1Cent=   200000004 NGrid=           0
         NMat0=    1 NMatS0=      1 NMatT0=    0 NMatD0=    1 NMtDS0=    0 NMtDT0=    0
 Petite list used in FoFCou.
 Keep R1 ints in memory in canonical form, NReq=3207895.
 Requested convergence on RMS density matrix=1.00D-08 within 128 cycles.
 Requested convergence on MAX density matrix=1.00D-06.
 Requested convergence on             energy=1.00D-06.
 No special actions if energy rises.
 SCF Done:  E(RHF) =  -1.13237121287     A.U. after    6 cycles
            NFock=  6  Conv=0.27D-10     -V/T= 2.0161
 Range of M.O.s used for correlation:     1    12
 NBasis=    12 NAE=     1 NBE=     1 NFC=     0 NFV=     0
 NROrb=     12 NOA=     1 NOB=     1 NVA=    11 NVB=    11
 Fully in-core method, ICMem=     6012708.
 JobTyp=1 Pass  1 fully in-core, NPsUse= 16.
 Spin components of T(2) and E(2):
     alpha-alpha T2 =       0.0000000000D+00 E2=      0.0000000000D+00
     alpha-beta  T2 =       0.9160203194D-02 E2=     -0.2782969065D-01
     beta-beta   T2 =       0.0000000000D+00 E2=      0.0000000000D+00
 ANorm=    0.1004569661D+01
 E2 =    -0.2782969065D-01 EUMP2 =    -0.11602009035218D+01

 **********************************************************************

            Population analysis using the SCF Density.

 **********************************************************************

 Orbital symmetries:
       Occupied  (A)
       Virtual   (A) (A) (A) (A) (A) (A) (A) (A) (A) (A) (A)
 The electronic state is 1-A.
 Alpha  occ. eigenvalues --   -0.59209
 Alpha virt. eigenvalues --    0.16521   0.30747   0.64154   1.33155   1.33155
 Alpha virt. eigenvalues --    1.81352   2.09255   2.09255   2.21936   2.71045
 Alpha virt. eigenvalues --    3.63823
          Condensed to atoms (all electrons):
              14         15
    14  H    0.581998   0.418002
    15  H    0.418002   0.581998
 Mulliken charges:
               1
     1  C    0.000000
     2  C    0.000000
     3  C    0.000000
     4  C    0.000000
     5  C    0.000000
     6  C    0.000000
     7  O    0.000000
     8  O    0.000000
     9  H    0.000000
    10  H    0.000000
    11  Mg   0.000000
    12  H    0.000000
    13  H    0.000000
    14  H   -0.000000
    15  H   -0.000000
    16  H    0.000000
    17  H    0.000000
 Sum of Mulliken charges =  -0.00000
 Mulliken charges with hydrogens summed into heavy atoms:
               1
     1  C    0.000000
     2  C    0.000000
     3  C    0.000000
     4  C    0.000000
     5  C    0.000000
     6  C    0.000000
     7  O    0.000000
     8  O    0.000000
    11  Mg  -0.000000
         Mulliken charges condensed to fragments:
      1      0.000000
      2     -0.000000
      3      0.000000
 Electronic spatial extent (au):  <R**2>=            129.2200
 Charge=             -0.0000 electrons
 Dipole moment (field-independent basis, Debye):
    X=              0.0000    Y=             -0.0000    Z=              0.0000  Tot=              0.0000
 Quadrupole moment (field-independent basis, Debye-Ang):
   XX=             -1.7362   YY=             -1.8538   ZZ=             -2.0932
   XY=              0.2926   XZ=              0.0097   YZ=              0.0080
 Traceless Quadrupole moment (field-independent basis, Debye-Ang):
   XX=              0.1582   YY=              0.0406   ZZ=             -0.1988
   XY=              0.2926   XZ=              0.0097   YZ=              0.0080
 Octapole moment (field-independent basis, Debye-Ang**2):
  XXX=             20.1120  YYY=             -8.7001  ZZZ=              0.3786  XYY=              8.0736
  XXY=             -4.9755  XXZ=              0.0297  XZZ=              8.0813  YZZ=             -3.2754
  YYZ=              0.1366  XYZ=             -0.0332
 Hexadecapole moment (field-independent basis, Debye-Ang**3):
 XXXX=           -157.9631 YYYY=            -29.6929 ZZZZ=             -2.1441 XXXY=             44.3420
 XXXZ=             -0.7850 YYYX=             35.5241 YYYZ=              0.5769 ZZZX=             -1.4696
 ZZZY=              0.5858 XXYY=            -39.7950 XXZZ=            -32.0033 YYZZ=             -5.8969
 XXYZ=              0.2999 YYXZ=             -0.5610 ZZXY=             12.5671
 N-N= 7.069248748848D-01 E-N=-3.608888017385D+00  KE= 1.114483573828D+00
 CPIOFr:  IOpCl= 0 IRwI=-1 IRwCP=  731 ICalc=  5 LCPTot=      101349 Len1MO=      263944 IndFrg=     1685013
 Counterpoise: doing calculation for fragment   3 using the basis set of the fragment.
 Basis read from rwf:  (5D, 7F)
 There are    12 symmetry adapted cartesian basis functions of A   symmetry.
 There are    12 symmetry adapted basis functions of A   symmetry.
    12 basis functions,    16 primitive gaussians,    12 cartesian basis functions
     1 alpha electrons        1 beta electrons
       nuclear repulsion energy         0.7068749555 Hartrees.
 NAtoms=   17 NActive=    2 NUniq=    2 SFac= 1.00D+00 NAtFMM=   60 NAOKFM=F Big=F
 Integral buffers will be    131072 words long.
 Raffenetti 1 integral format.
 Two-electron integral symmetry is turned on.
 One-electron integrals computed using PRISM.
 NBasis=    12 RedAO= T EigKep=  1.70D-02  NBF=    12
 NBsUse=    12 1.00D-06 EigRej= -1.00D+00 NBFU=    12
 ExpMin= 1.03D-01 ExpMax= 3.39D+01 ExpMxC= 3.39D+01 IAcc=3 IRadAn=         5 AccDes= 0.00D+00
 Harris functional with IExCor=  205 and IRadAn=       5 diagonalized for initial guess.
 HarFok:  IExCor=  205 AccDes= 0.00D+00 IRadAn=         5 IDoV= 1 UseB2=F ITyADJ=14
 ICtDFT=  3500011 ScaDFX=  1.000000  1.000000  1.000000  1.000000
 FoFCou: FMM=F IPFlag=           0 FMFlag=      100000 FMFlg1=           0
         NFxFlg=           0 DoJE=T BraDBF=F KetDBF=T FulRan=T
         wScrn=  0.000000 ICntrl=       500 IOpCl=  0 I1Cent=   200000004 NGrid=           0
         NMat0=    1 NMatS0=      1 NMatT0=    0 NMatD0=    1 NMtDS0=    0 NMtDT0=    0
 Petite list used in FoFCou.
 Keep R1 ints in memory in canonical form, NReq=3207895.
 Requested convergence on RMS density matrix=1.00D-08 within 128 cycles.
 Requested convergence on MAX density matrix=1.00D-06.
 Requested convergence on             energy=1.00D-06.
 No special actions if energy rises.
 SCF Done:  E(RHF) =  -1.13237025661     A.U. after    6 cycles
            NFock=  6  Conv=0.27D-10     -V/T= 2.0161
 Range of M.O.s used for correlation:     1    12
 NBasis=    12 NAE=     1 NBE=     1 NFC=     0 NFV=     0
 NROrb=     12 NOA=     1 NOB=     1 NVA=    11 NVB=    11
 Fully in-core method, ICMem=     6012708.
 JobTyp=1 Pass  1 fully in-core, NPsUse= 16.
 Spin components of T(2) and E(2):
     alpha-alpha T2 =       0.0000000000D+00 E2=      0.0000000000D+00
     alpha-beta  T2 =       0.9160747823D-02 E2=     -0.2782991366D-01
     beta-beta   T2 =       0.0000000000D+00 E2=      0.0000000000D+00
 ANorm=    0.1004569932D+01
 E2 =    -0.2782991366D-01 EUMP2 =    -0.11602001702675D+01

 **********************************************************************

            Population analysis using the SCF Density.

 **********************************************************************

 Orbital symmetries:
       Occupied  (A)
       Virtual   (A) (A) (A) (A) (A) (A) (A) (A) (A) (A) (A)
 The electronic state is 1-A.
 Alpha  occ. eigenvalues --   -0.59208
 Alpha virt. eigenvalues --    0.16520   0.30748   0.64153   1.33154   1.33154
 Alpha virt. eigenvalues --    1.81349   2.09252   2.09252   2.21945   2.71045
 Alpha virt. eigenvalues --    3.63794
          Condensed to atoms (all electrons):
              16         17
    16  H    0.582007   0.417993
    17  H    0.417993   0.582007
 Mulliken charges:
               1
     1  C    0.000000
     2  C    0.000000
     3  C    0.000000
     4  C    0.000000
     5  C    0.000000
     6  C    0.000000
     7  O    0.000000
     8  O    0.000000
     9  H    0.000000
    10  H    0.000000
    11  Mg   0.000000
    12  H    0.000000
    13  H    0.000000
    14  H    0.000000
    15  H    0.000000
    16  H   -0.000000
    17  H    0.000000
 Sum of Mulliken charges =  -0.00000
 Mulliken charges with hydrogens summed into heavy atoms:
               1
     1  C    0.000000
     2  C    0.000000
     3  C    0.000000
     4  C    0.000000
     5  C    0.000000
     6  C    0.000000
     7  O    0.000000
     8  O    0.000000
    11  Mg  -0.000000
         Mulliken charges condensed to fragments:
      1      0.000000
      2      0.000000
      3     -0.000000
 Electronic spatial extent (au):  <R**2>=            128.0906
 Charge=             -0.0000 electrons
 Dipole moment (field-independent basis, Debye):
    X=              0.0000    Y=              0.0000    Z=              0.0000  Tot=              0.0000
 Quadrupole moment (field-independent basis, Debye-Ang):
   XX=             -1.7319   YY=             -1.8580   ZZ=             -2.0934
   XY=             -0.2918   XZ=              0.0061   YZ=             -0.0049
 Traceless Quadrupole moment (field-independent basis, Debye-Ang):
   XX=              0.1625   YY=              0.0364   ZZ=             -0.1990
   XY=             -0.2918   XZ=              0.0061   YZ=             -0.0049
 Octapole moment (field-independent basis, Debye-Ang**2):
  XXX=             19.9430  YYY=              8.7597  ZZZ=             -0.0064  XYY=              8.0490
  XXY=              4.9619  XXZ=             -0.0488  XZZ=              8.0353  YZZ=              3.2898
  YYZ=              0.0137  XYZ=              0.0091
 Hexadecapole moment (field-independent basis, Debye-Ang**3):
 XXXX=           -155.7477 YYYY=            -29.9987 ZZZZ=             -2.0984 XXXY=            -44.0316
 XXXZ=              0.2870 YYYX=            -35.5672 YYYZ=             -0.0241 ZZZX=              0.0194
 ZZZY=              0.0141 XXYY=            -39.5292 XXZZ=            -31.6405 YYZZ=             -5.9336
 XXYZ=              0.0069 YYXZ=             -0.0376 ZZXY=            -12.5480
 N-N= 7.068749555114D-01 E-N=-3.608765390888D+00  KE= 1.114430518318D+00
 CPIOFr:  IOpCl= 0 IRwI=-1 IRwCP=  731 ICalc=  6 LCPTot=      101349 Len1MO=      263944 IndFrg=     1948957
 CPIOFr:  IOpCl= 0 IRwI=-2 IRwCP=  731 ICalc=  0 LCPTot=      101349 Len1MO=      263944 IndFrg=      365293
 Counterpoise corrected energy =    -582.565823521685
                   BSSE energy =       0.002054151994
              sum of fragments =    -582.550354066518
           complexation energy =     -11.00 kcal/mole (raw)
           complexation energy =      -9.71 kcal/mole (corrected)
 Unable to Open any file for archive entry.
 1\1\GINC-GPU26\SP\RMP2-FC\6-311+G(d,p)\C6H8Mg1O2\X2848A03\13-Sep-2024\
 0\\# MP2/6-311+g(d,p) counterpoise=3\\one_3_frag_2\\0,1\C,-1,-0.032144
 ,1.380417,0.053083\C,-1,-1.237492,0.700458,-0.007861\C,-1,-1.237524,-0
 .700373,-0.064287\C,-1,-0.024136,-1.401453,-0.027093\C,-1,1.197643,-0.
 710151,0.017265\C,-1,1.209086,0.748674,-0.017937\O,-1,2.374408,1.39935
 8,0.02605\O,-1,2.380206,-1.4044,-0.00303\H,-1,-2.175863,-1.249095,0.\H
 ,-1,-2.175827,1.249217,0.\Mg,-1,3.633971,-0.012816,-0.039427\H,-1,0.00
 115,2.487129,-0.002033\H,-1,0.000938,-2.487226,0.06527\H,0,4.918489,-1
 .812704,-0.098231\H,0,5.498833,-1.340032,-0.109515\H,0,5.485692,1.3226
 56,-0.009523\H,0,4.904583,1.794259,0.008571\\Version=ES64L-G16RevC.01\
 State=1-A\HF=-1.1323703\MP2=-1.1602002\RMSD=2.733e-11\PG=C01 [X(C6H8Mg
 1O2)]\\@
 The archive entry for this job was punched.


      LET US REMEMBER, PLEASE, THAT THE SEARCH FOR THE CONSTITUTION
      OF THE WORLD IS ONE OF THE GREATEST AND NOBLEST PROBLEMS PRESENTED 
      BY NATURE.

                                                  -- GALILEO
 Job cpu time:       0 days  0 hours 20 minutes 50.1 seconds.
 Elapsed time:       0 days  0 hours  1 minutes 22.4 seconds.
 File lengths (MBytes):  RWF=     59 Int=      0 D2E=      0 Chk=     20 Scr=      1
 Normal termination of Gaussian 16 at Fri Sep 13 10:39:02 2024.
