 Entering Gaussian System, Link 0=g16
 Input=two_3_frag_2.gjf
 Output=two_3_frag_2.log
 Initial command:
 /apps/applications/G16/g16.c01/l1.exe "/scratch/x2848a03/calculation/H2_COF/H2_cate_opt/SP/Gau-71913.inp" -scrdir="/scratch/x2848a03/calculation/H2_COF/H2_cate_opt/SP/"
 Default CPUs for threads: 4-7,12-15,20-23,28-31
 Default is to use a total of  16 processors:
                               16 via shared-memory
                                1 via Linda
 Entering Link 1 = /apps/applications/G16/g16.c01/l1.exe PID=     71914.
  
 Copyright (c) 1988-2019, Gaussian, Inc.  All Rights Reserved.
  
 This is part of the Gaussian(R) 16 program.  It is based on
 the Gaussian(R) 09 system (copyright 2009, Gaussian, Inc.),
 the Gaussian(R) 03 system (copyright 2003, Gaussian, Inc.),
 the Gaussian(R) 98 system (copyright 1998, Gaussian, Inc.),
 the Gaussian(R) 94 system (copyright 1995, Gaussian, Inc.),
 the Gaussian 92(TM) system (copyright 1992, Gaussian, Inc.),
 the Gaussian 90(TM) system (copyright 1990, Gaussian, Inc.),
 the Gaussian 88(TM) system (copyright 1988, Gaussian, Inc.),
 the Gaussian 86(TM) system (copyright 1986, Carnegie Mellon
 University), and the Gaussian 82(TM) system (copyright 1983,
 Carnegie Mellon University). Gaussian is a federally registered
 trademark of Gaussian, Inc.
  
 This software contains proprietary and confidential information,
 including trade secrets, belonging to Gaussian, Inc.
  
 This software is provided under written license and may be
 used, copied, transmitted, or stored only in accord with that
 written license.
  
 The following legend is applicable only to US Government
 contracts under FAR:
  
                    RESTRICTED RIGHTS LEGEND
  
 Use, reproduction and disclosure by the US Government is
 subject to restrictions as set forth in subparagraphs (a)
 and (c) of the Commercial Computer Software - Restricted
 Rights clause in FAR 52.227-19.
  
 Gaussian, Inc.
 340 Quinnipiac St., Bldg. 40, Wallingford CT 06492
  
  
 ---------------------------------------------------------------
 Warning -- This program may not be used in any manner that
 competes with the business of Gaussian, Inc. or will provide
 assistance to any competitor of Gaussian, Inc.  The licensee
 of this program is prohibited from giving any competitor of
 Gaussian, Inc. access to this program.  By using this program,
 the user acknowledges that Gaussian, Inc. is engaged in the
 business of creating and licensing software in the field of
 computational chemistry and represents and warrants to the
 licensee that it is not a competitor of Gaussian, Inc. and that
 it will not use this program in any manner prohibited above.
 ---------------------------------------------------------------
  

 Cite this work as:
 Gaussian 16, Revision C.01,
 M. J. Frisch, G. W. Trucks, H. B. Schlegel, G. E. Scuseria, 
 M. A. Robb, J. R. Cheeseman, G. Scalmani, V. Barone, 
 G. A. Petersson, H. Nakatsuji, X. Li, M. Caricato, A. V. Marenich, 
 J. Bloino, B. G. Janesko, R. Gomperts, B. Mennucci, H. P. Hratchian, 
 J. V. Ortiz, A. F. Izmaylov, J. L. Sonnenberg, D. Williams-Young, 
 F. Ding, F. Lipparini, F. Egidi, J. Goings, B. Peng, A. Petrone, 
 T. Henderson, D. Ranasinghe, V. G. Zakrzewski, J. Gao, N. Rega, 
 G. Zheng, W. Liang, M. Hada, M. Ehara, K. Toyota, R. Fukuda, 
 J. Hasegawa, M. Ishida, T. Nakajima, Y. Honda, O. Kitao, H. Nakai, 
 T. Vreven, K. Throssell, J. A. Montgomery, Jr., J. E. Peralta, 
 F. Ogliaro, M. J. Bearpark, J. J. Heyd, E. N. Brothers, K. N. Kudin, 
 V. N. Staroverov, T. A. Keith, R. Kobayashi, J. Normand, 
 K. Raghavachari, A. P. Rendell, J. C. Burant, S. S. Iyengar, 
 J. Tomasi, M. Cossi, J. M. Millam, M. Klene, C. Adamo, R. Cammi, 
 J. W. Ochterski, R. L. Martin, K. Morokuma, O. Farkas, 
 J. B. Foresman, and D. J. Fox, Gaussian, Inc., Wallingford CT, 2019.
 
 ******************************************
 Gaussian 16:  ES64L-G16RevC.01  3-Jul-2019
                13-Sep-2024 
 ******************************************
 SetSPE:  set environment variable "MP_BIND" = "yes"
 SetSPE:  set environment variable "MP_BLIST" = "4,5,6,7,12,13,14,15,20,21,22,23,28,29,30,31"
 Will use    1 GPUs:
 Thread  CPU   GPU
      0    4     0
      1    5    -1
      2    6    -1
      3    7    -1
      4   12    -1
      5   13    -1
      6   14    -1
      7   15    -1
      8   20    -1
      9   21    -1
     10   22    -1
     11   23    -1
     12   28    -1
     13   29    -1
     14   30    -1
     15   31    -1
 SetGPE:  set environment variable "MP_BIND" = "yes"
 SetGPE:  set environment variable "MP_BLIST" = "4,5,6,7,12,13,14,15,20,21,22,23,28,29,30,31"
 Properties for Device   0
 Minimum vector length:                              32
 Maximum vector length:                            1024
 Number of SMPs:                                     80
 Maximum number of threads per SMP:                2048
 Number of ASync Engines:                             7
 Memory:                                           1050959872
    945863884 words of memory will be used on each GPU.
 ---------------------------------
 # MP2/6-311+g(d,p) counterpoise=3
 ---------------------------------
 1/38=1,62=3,172=1/1;
 2/12=2,17=6,18=5,40=1/2;
 1/38=1,53=2,62=3,63=1/22;
 3/5=4,6=6,7=111,11=9,25=1,30=1/1,2,3;
 4//1;
 5/5=2,38=5/2;
 8/10=2/1;
 9/16=-3/6;
 6/7=2,8=2,9=2,10=2/1;
 1/53=2,62=3,63=1/22;
 3/5=7,6=11,7=111,11=9,25=1,30=1,82=7/1,2,3;
 4//1;
 5/5=2,38=5/2;
 8/10=2/1;
 9/16=-3/6;
 6/7=2,8=2,9=2,10=2/1;
 1/53=2,62=3,63=1/22(-6);
 99/5=1,9=1/99;
 ------------
 two_3_frag_2
 ------------
 Symbolic Z-matrix:
 Charge =  0 Multiplicity = 1 in supermolecule
 Charge =  0 Multiplicity = 1 in fragment      1.
 Charge =  0 Multiplicity = 1 in fragment      2.
 Charge =  0 Multiplicity = 1 in fragment      3.
 C(Fragment=1)        -1    0.01266   1.39677  -0.00023 
 C(Fragment=1)        -1    1.23752   0.71703   0.00001 
 C(Fragment=1)        -1    1.23753  -0.71621   0.00003 
 C(Fragment=1)        -1    0.01293  -1.39652  0. 
 C(Fragment=1)        -1   -1.21169  -0.71675  -0.00001 
 C(Fragment=1)        -1   -1.2117    0.71641   0.0001 
 O(Fragment=1)        -1   -2.3964    1.43378   0. 
 O(Fragment=1)        -1   -2.39637  -1.43413   0. 
 O(Fragment=1)        -1    2.42358  -1.42067   0.00004 
 O(Fragment=1)        -1    2.42379   1.42117   0.00029 
 Mg(Fragment=1)       -1   -3.59434  -0.00015   0. 
 Mg(Fragment=1)       -1    3.63966   0.       -0.0002 
 H(Fragment=1)        -1    0.01158   2.48375  -0.00003 
 H(Fragment=1)        -1    0.01224  -2.48349   0.00001 
 H(Fragment=2)        0     5.52679  -1.33842   0.00175 
 H(Fragment=2)        0     4.9412   -1.8044    0.00198 
 H(Fragment=3)        0     5.52674   1.33833   0.00146 
 H(Fragment=3)        0     4.94111   1.80427   0.00184 
 
                          Input orientation:                          
 ---------------------------------------------------------------------
 Center     Atomic      Atomic             Coordinates (Angstroms)
 Number     Number       Type             X           Y           Z
 ---------------------------------------------------------------------
      1          6           0        0.012663    1.396773   -0.000233
      2          6           0        1.237517    0.717029    0.000010
      3          6           0        1.237526   -0.716213    0.000025
      4          6           0        0.012927   -1.396516   -0.000001
      5          6           0       -1.211686   -0.716754   -0.000010
      6          6           0       -1.211697    0.716410    0.000103
      7          8           0       -2.396395    1.433780    0.000000
      8          8           0       -2.396365   -1.434125    0.000000
      9          8           0        2.423579   -1.420667    0.000041
     10          8           0        2.423791    1.421170    0.000289
     11         12           0       -3.594341   -0.000150    0.000001
     12         12           0        3.639658    0.000004   -0.000200
     13          1           0        0.011577    2.483752   -0.000032
     14          1           0        0.012239   -2.483487    0.000008
     15          1           0        5.526789   -1.338420    0.001745
     16          1           0        4.941199   -1.804401    0.001984
     17          1           0        5.526738    1.338326    0.001459
     18          1           0        4.941114    1.804273    0.001841
 ---------------------------------------------------------------------
                    Distance matrix (angstroms):
                    1          2          3          4          5
     1  C    0.000000
     2  C    1.400828   0.000000
     3  C    2.442335   1.433242   0.000000
     4  C    2.793289   2.442682   1.400876   0.000000
     5  C    2.442545   2.838015   2.449212   1.400626   0.000000
     6  C    1.400697   2.449214   2.837446   2.442163   1.433164
     7  O    2.409342   3.703923   4.222304   3.716908   2.455266
     8  O    3.717176   4.222862   3.704128   2.409586   1.384950
     9  O    3.708165   2.444686   1.379484   2.410773   3.702789
    10  O    2.411251   1.379515   2.444510   3.708318   4.217513
    11  Mg   3.868058   4.884792   4.884638   3.868103   2.488085
    12  Mg   3.886651   2.506872   2.506632   3.886315   4.904007
    13  H    1.086980   2.150404   3.426766   3.880268   3.426312
    14  H    3.880260   3.427041   2.150485   1.086971   2.149265
    15  H    6.155231   4.756336   4.334158   5.514168   6.767091
    16  H    5.876903   4.480499   3.860227   4.945123   6.248278
    17  H    5.514385   4.333985   4.755888   6.154793   7.044836
    18  H    4.945269   3.859888   4.479890   5.876400   6.649250
                    6          7          8          9         10
     6  C    0.000000
     7  O    1.384965   0.000000
     8  O    2.455247   2.867905   0.000000
     9  O    4.216910   5.601787   4.819963   0.000000
    10  O    3.703169   4.820203   5.602376   2.841837   0.000000
    11  Mg   2.488062   1.868483   1.868537   6.183302   6.183693
    12  Mg   4.903966   6.204003   6.204055   1.870068   1.870306
    13  H    2.149395   2.626932   4.598689   4.589362   2.635879
    14  H    3.425983   4.598532   2.627267   2.635175   4.589328
    15  H    7.044822   8.394161   7.923732   3.104300   4.152582
    16  H    6.649257   8.020356   7.346901   2.546697   4.091657
    17  H    6.767074   7.923708   8.394167   4.152305   3.104053
    18  H    6.248242   7.346857   8.020338   4.091237   2.546308
                   11         12         13         14         15
    11  Mg   0.000000
    12  Mg   7.233999   0.000000
    13  H    4.378631   4.396814   0.000000
    14  H    4.378856   4.396123   4.967239   0.000000
    15  H    9.218784   2.313579   6.710184   5.632179   0.000000
    16  H    8.724149   2.224835   6.533715   4.975521   0.748368
    17  H    9.218764   2.313478   5.632850   6.709393   2.676746
    18  H    8.724101   2.224675   4.976146   6.532894   3.196801
                   16         17         18
    16  H    0.000000
    17  H    3.196809   0.000000
    18  H    3.608674   0.748373   0.000000
 Stoichiometry    C6H6Mg2O4
 Framework group  C1[X(C6H6Mg2O4)]
 Deg. of freedom    48
 Full point group                 C1      NOp   1
 Largest Abelian subgroup         C1      NOp   1
 Largest concise Abelian subgroup C1      NOp   1
                         Standard orientation:                         
 ---------------------------------------------------------------------
 Center     Atomic      Atomic             Coordinates (Angstroms)
 Number     Number       Type             X           Y           Z
 ---------------------------------------------------------------------
      1          6           0       -0.215874    1.396744   -0.000301
      2          6           0        1.008944    0.716935   -0.000058
      3          6           0        1.008877   -0.716307   -0.000043
      4          6           0       -0.215758   -1.396545   -0.000069
      5          6           0       -1.440335   -0.716718   -0.000078
      6          6           0       -1.440270    0.716446    0.000035
      7          8           0       -2.624930    1.433879   -0.000068
      8          8           0       -2.625052   -1.434026   -0.000068
      9          8           0        2.194893   -1.420824   -0.000027
     10          8           0        2.195256    1.421013    0.000221
     11         12           0       -3.822952    0.000013   -0.000067
     12         12           0        3.411047   -0.000217   -0.000268
     13          1           0       -0.216902    2.483723   -0.000100
     14          1           0       -0.216503   -2.483516   -0.000060
     15          1           0        5.298107   -1.338741    0.001677
     16          1           0        4.712493   -1.804691    0.001916
     17          1           0        5.298198    1.338005    0.001391
     18          1           0        4.712599    1.803983    0.001773
 ---------------------------------------------------------------------
 Rotational constants (GHZ):           2.2517780           0.4286628           0.3601100
 Counterpoise: doing full-system calculation.
 Standard basis: 6-311+G(d,p) (5D, 7F)
 There are   328 symmetry adapted cartesian basis functions of A   symmetry.
 There are   316 symmetry adapted basis functions of A   symmetry.
   316 basis functions,   508 primitive gaussians,   328 cartesian basis functions
    49 alpha electrons       49 beta electrons
       nuclear repulsion energy       796.0011216105 Hartrees.
 NAtoms=   18 NActive=   18 NUniq=   18 SFac= 1.00D+00 NAtFMM=   60 NAOKFM=F Big=F
 Integral buffers will be    131072 words long.
 Raffenetti 1 integral format.
 Two-electron integral symmetry is turned on.
 One-electron integrals computed using PRISM.
 NBasis=   316 RedAO= T EigKep=  3.29D-06  NBF=   316
 NBsUse=   315 1.00D-06 EigRej=  8.41D-07 NBFU=   315
 ExpMin= 1.46D-02 ExpMax= 4.39D+04 ExpMxC= 1.51D+03 IAcc=3 IRadAn=         5 AccDes= 0.00D+00
 Harris functional with IExCor=  205 and IRadAn=       5 diagonalized for initial guess.
 HarFok:  IExCor=  205 AccDes= 0.00D+00 IRadAn=         5 IDoV= 1 UseB2=F ITyADJ=14
 ICtDFT=  3500011 ScaDFX=  1.000000  1.000000  1.000000  1.000000
 FoFCou: FMM=F IPFlag=           0 FMFlag=      100000 FMFlg1=           0
         NFxFlg=           0 DoJE=T BraDBF=F KetDBF=T FulRan=T
         wScrn=  0.000000 ICntrl=       500 IOpCl=  0 I1Cent=   200000004 NGrid=           0
         NMat0=    1 NMatS0=      1 NMatT0=    0 NMatD0=    1 NMtDS0=    0 NMtDT0=    0
 Petite list used in FoFCou.
 Requested convergence on RMS density matrix=1.00D-08 within 128 cycles.
 Requested convergence on MAX density matrix=1.00D-06.
 Requested convergence on             energy=1.00D-06.
 No special actions if energy rises.
 SCF Done:  E(RHF) =  -929.479036141     A.U. after   15 cycles
            NFock= 15  Conv=0.99D-08     -V/T= 2.0012
 ExpMin= 1.46D-02 ExpMax= 4.39D+04 ExpMxC= 1.51D+03 IAcc=3 IRadAn=         5 AccDes= 0.00D+00
 HarFok:  IExCor=  205 AccDes= 0.00D+00 IRadAn=         5 IDoV=-2 UseB2=F ITyADJ=14
 ICtDFT= 12500011 ScaDFX=  1.000000  1.000000  1.000000  1.000000
 Range of M.O.s used for correlation:    21   315
 NBasis=   316 NAE=    49 NBE=    49 NFC=    20 NFV=     0
 NROrb=    295 NOA=    29 NOB=    29 NVA=   266 NVB=   266

 **** Warning!!: The largest alpha MO coefficient is  0.94785151D+02

 Fully direct method using O(OVN) memory.
 JobTyp=1 Pass  1:  I=   1 to  29 NPSUse= 16 ParTrn=T ParDer=T DoDerP=F.
 Spin components of T(2) and E(2):
     alpha-alpha T2 =       0.7966469158D-01 E2=     -0.2357288492D+00
     alpha-beta  T2 =       0.4057101589D+00 E2=     -0.1258730419D+01
     beta-beta   T2 =       0.7966469158D-01 E2=     -0.2357288492D+00
 ANorm=    0.1251015404D+01
 E2 =    -0.1730188118D+01 EUMP2 =    -0.93120922425807D+03

 **********************************************************************

            Population analysis using the SCF Density.

 **********************************************************************

 Orbital symmetries:
       Occupied  (A) (A) (A) (A) (A) (A) (A) (A) (A) (A) (A) (A)
                 (A) (A) (A) (A) (A) (A) (A) (A) (A) (A) (A) (A)
                 (A) (A) (A) (A) (A) (A) (A) (A) (A) (A) (A) (A)
                 (A) (A) (A) (A) (A) (A) (A) (A) (A) (A) (A) (A)
                 (A)
       Virtual   (A) (A) (A) (A) (A) (A) (A) (A) (A) (A) (A) (A)
                 (A) (A) (A) (A) (A) (A) (A) (A) (A) (A) (A) (A)
                 (A) (A) (A) (A) (A) (A) (A) (A) (A) (A) (A) (A)
                 (A) (A) (A) (A) (A) (A) (A) (A) (A) (A) (A) (A)
                 (A) (A) (A) (A) (A) (A) (A) (A) (A) (A) (A) (A)
                 (A) (A) (A) (A) (A) (A) (A) (A) (A) (A) (A) (A)
                 (A) (A) (A) (A) (A) (A) (A) (A) (A) (A) (A) (A)
                 (A) (A) (A) (A) (A) (A) (A) (A) (A) (A) (A) (A)
                 (A) (A) (A) (A) (A) (A) (A) (A) (A) (A) (A) (A)
                 (A) (A) (A) (A) (A) (A) (A) (A) (A) (A) (A) (A)
                 (A) (A) (A) (A) (A) (A) (A) (A) (A) (A) (A) (A)
                 (A) (A) (A) (A) (A) (A) (A) (A) (A) (A) (A) (A)
                 (A) (A) (A) (A) (A) (A) (A) (A) (A) (A) (A) (A)
                 (A) (A) (A) (A) (A) (A) (A) (A) (A) (A) (A) (A)
                 (A) (A) (A) (A) (A) (A) (A) (A) (A) (A) (A) (A)
                 (A) (A) (A) (A) (A) (A) (A) (A) (A) (A) (A) (A)
                 (A) (A) (A) (A) (A) (A) (A) (A) (A) (A) (A) (A)
                 (A) (A) (A) (A) (A) (A) (A) (A) (A) (A) (A) (A)
                 (A) (A) (A) (A) (A) (A) (A) (A) (A) (A) (A) (A)
                 (A) (A) (A) (A) (A) (A) (A) (A) (A) (A) (A) (A)
                 (A) (A) (A) (A) (A) (A) (A) (A) (A) (A) (A) (A)
                 (A) (A) (A) (A) (A) (A) (A) (A) (A) (A) (A) (A)
                 (A) (A)
 The electronic state is 1-A.
 Alpha  occ. eigenvalues --  -49.07199 -49.05425 -20.47889 -20.47887 -20.47307
 Alpha  occ. eigenvalues --  -20.47305 -11.22305 -11.22204 -11.22147 -11.22047
 Alpha  occ. eigenvalues --  -11.15973 -11.15971  -3.80397  -3.78694  -2.32693
 Alpha  occ. eigenvalues --   -2.32639  -2.32472  -2.31021  -2.30986  -2.30838
 Alpha  occ. eigenvalues --   -1.28180  -1.27605  -1.24530  -1.24209  -1.03801
 Alpha  occ. eigenvalues --   -0.92532  -0.88065  -0.76487  -0.71529  -0.70965
 Alpha  occ. eigenvalues --   -0.68374  -0.63352  -0.60125  -0.57502  -0.53366
 Alpha  occ. eigenvalues --   -0.52891  -0.51893  -0.51578  -0.49515  -0.49216
 Alpha  occ. eigenvalues --   -0.45330  -0.44154  -0.43677  -0.41830  -0.39766
 Alpha  occ. eigenvalues --   -0.39257  -0.34679  -0.24599  -0.19532
 Alpha virt. eigenvalues --   -0.03588   0.01306   0.02825   0.02916   0.03039
 Alpha virt. eigenvalues --    0.03598   0.03881   0.04776   0.05723   0.06112
 Alpha virt. eigenvalues --    0.07593   0.08324   0.09176   0.09369   0.11156
 Alpha virt. eigenvalues --    0.13535   0.14506   0.14646   0.15065   0.16413
 Alpha virt. eigenvalues --    0.17291   0.18281   0.19042   0.19221   0.19529
 Alpha virt. eigenvalues --    0.19814   0.19978   0.21327   0.21695   0.22694
 Alpha virt. eigenvalues --    0.22822   0.22987   0.23337   0.23476   0.23855
 Alpha virt. eigenvalues --    0.24334   0.24339   0.24443   0.27021   0.27132
 Alpha virt. eigenvalues --    0.29152   0.29409   0.30396   0.30887   0.33111
 Alpha virt. eigenvalues --    0.33644   0.35148   0.35892   0.36931   0.38701
 Alpha virt. eigenvalues --    0.38729   0.38730   0.38892   0.39398   0.40368
 Alpha virt. eigenvalues --    0.41387   0.41609   0.42023   0.42911   0.43882
 Alpha virt. eigenvalues --    0.46016   0.46790   0.47400   0.48223   0.48653
 Alpha virt. eigenvalues --    0.49033   0.49488   0.51202   0.51350   0.52974
 Alpha virt. eigenvalues --    0.53467   0.54763   0.54899   0.55364   0.56314
 Alpha virt. eigenvalues --    0.56651   0.57872   0.58672   0.60858   0.61043
 Alpha virt. eigenvalues --    0.62201   0.63005   0.65289   0.65954   0.68163
 Alpha virt. eigenvalues --    0.68844   0.69620   0.71665   0.73697   0.77796
 Alpha virt. eigenvalues --    0.78062   0.78316   0.78395   0.79158   0.79308
 Alpha virt. eigenvalues --    0.83381   0.83517   0.83788   0.85455   0.86400
 Alpha virt. eigenvalues --    0.90575   0.91212   0.91283   0.92550   0.94554
 Alpha virt. eigenvalues --    0.94664   0.97357   0.99445   0.99953   1.01206
 Alpha virt. eigenvalues --    1.03258   1.05160   1.08058   1.09469   1.12627
 Alpha virt. eigenvalues --    1.17573   1.18313   1.19702   1.20795   1.25603
 Alpha virt. eigenvalues --    1.25746   1.27204   1.28639   1.30178   1.31372
 Alpha virt. eigenvalues --    1.32640   1.33259   1.35321   1.36319   1.41373
 Alpha virt. eigenvalues --    1.42133   1.43153   1.45099   1.49651   1.50665
 Alpha virt. eigenvalues --    1.52597   1.52672   1.54626   1.54750   1.56604
 Alpha virt. eigenvalues --    1.56677   1.57823   1.60799   1.61107   1.65952
 Alpha virt. eigenvalues --    1.70660   1.71018   1.78357   1.82108   1.82324
 Alpha virt. eigenvalues --    1.83667   1.86074   1.90215   1.92028   1.92689
 Alpha virt. eigenvalues --    2.00116   2.01274   2.02106   2.02126   2.05267
 Alpha virt. eigenvalues --    2.06947   2.08435   2.08754   2.09129   2.15116
 Alpha virt. eigenvalues --    2.17292   2.18668   2.22949   2.24177   2.25412
 Alpha virt. eigenvalues --    2.27374   2.29403   2.32474   2.35008   2.37008
 Alpha virt. eigenvalues --    2.38431   2.41218   2.41909   2.44300   2.50470
 Alpha virt. eigenvalues --    2.54221   2.57957   2.64812   2.67688   2.73130
 Alpha virt. eigenvalues --    2.80370   2.83573   2.95207   2.97953   3.03534
 Alpha virt. eigenvalues --    3.07264   3.09452   3.09607   3.13195   3.18915
 Alpha virt. eigenvalues --    3.19834   3.27388   3.29751   3.33859   3.36502
 Alpha virt. eigenvalues --    3.37008   3.39000   3.40675   3.45066   3.46624
 Alpha virt. eigenvalues --    3.48145   3.51111   3.52742   3.53775   3.55549
 Alpha virt. eigenvalues --    3.57090   3.57446   3.61292   3.63805   3.66184
 Alpha virt. eigenvalues --    3.66655   3.67933   3.68235   3.69901   3.72574
 Alpha virt. eigenvalues --    3.83817   3.86063   3.91095   3.93506   3.94683
 Alpha virt. eigenvalues --    4.01467   4.04700   4.12340   4.19369   4.24167
 Alpha virt. eigenvalues --    4.62747   4.64538   4.69466   4.72333   4.74134
 Alpha virt. eigenvalues --    5.32464   5.65129   5.67332   5.69891   5.71655
 Alpha virt. eigenvalues --    5.79773   5.83644   5.90230   5.92426   6.14790
 Alpha virt. eigenvalues --    6.34071   6.35989   6.38437   6.41653   6.43359
 Alpha virt. eigenvalues --    6.66365   6.68792   6.75722   6.76775  24.79850
 Alpha virt. eigenvalues --   25.07090  25.10129  25.16420  25.30881  25.36688
 Alpha virt. eigenvalues --   51.71832  51.75309  51.79399  51.81730 105.77129
 Alpha virt. eigenvalues --  105.89446
          Condensed to atoms (all electrons):
               1          2          3          4          5          6
     1  C   24.140080   4.216595 -11.740246  -2.010626 -11.834931   5.145961
     2  C    4.216595  26.874280 -12.910389 -11.734602  -3.870231   2.586587
     3  C  -11.740246 -12.910389  26.882591   4.229227   2.588465  -3.886799
     4  C   -2.010626 -11.734602   4.229227  24.137998   5.132963 -11.837617
     5  C  -11.834931  -3.870231   2.588465   5.132963  28.100997 -15.081334
     6  C    5.145961   2.586587  -3.886799 -11.837617 -15.081334  28.108395
     7  O   -1.013311  -0.037775   0.104887   0.145611   0.903590  -0.171308
     8  O    0.145704   0.104765  -0.038129  -1.013267  -0.171013   0.903560
     9  O    0.101953   0.626259   0.044292  -0.873467  -0.020368   0.089076
    10  O   -0.873162   0.044912   0.625887   0.102026   0.088970  -0.020760
    11  Mg   0.090912  -0.046969  -0.047039   0.090836  -0.145071  -0.144059
    12  Mg   0.072855  -0.157147  -0.157003   0.072739   0.009233   0.009218
    13  H    0.329611   0.023191   0.025949  -0.036690   0.024439   0.007661
    14  H   -0.036682   0.025968   0.023249   0.329571   0.007608   0.024451
    15  H   -0.000367  -0.006966   0.008697   0.001539   0.001834  -0.000330
    16  H   -0.001129  -0.008730   0.018711   0.001999   0.003689  -0.000489
    17  H    0.001513   0.008647  -0.006898  -0.000347  -0.000330   0.001828
    18  H    0.001961   0.018629  -0.008616  -0.001105  -0.000491   0.003678
               7          8          9         10         11         12
     1  C   -1.013311   0.145704   0.101953  -0.873162   0.090912   0.072855
     2  C   -0.037775   0.104765   0.626259   0.044912  -0.046969  -0.157147
     3  C    0.104887  -0.038129   0.044292   0.625887  -0.047039  -0.157003
     4  C    0.145611  -1.013267  -0.873467   0.102026   0.090836   0.072739
     5  C    0.903590  -0.171013  -0.020368   0.088970  -0.145071   0.009233
     6  C   -0.171308   0.903560   0.089076  -0.020760  -0.144059   0.009218
     7  O    8.397098  -0.010964   0.000247  -0.000659   0.191619   0.001096
     8  O   -0.010964   8.397214  -0.000660   0.000246   0.191747   0.001095
     9  O    0.000247  -0.000660   8.412875  -0.001853   0.001076   0.163099
    10  O   -0.000659   0.000246  -0.001853   8.412949   0.001076   0.163154
    11  Mg   0.191619   0.191747   0.001076   0.001076  10.763972  -0.003688
    12  Mg   0.001096   0.001095   0.163099   0.163154  -0.003688  10.639303
    13  H   -0.003932   0.000012  -0.000034  -0.004998   0.001279   0.002611
    14  H    0.000013  -0.003922  -0.005012  -0.000034   0.001277   0.002615
    15  H    0.000000  -0.000000  -0.011661   0.001444  -0.000013   0.035644
    16  H    0.000000  -0.000002  -0.010593   0.001184  -0.000028   0.031226
    17  H   -0.000000   0.000000   0.001442  -0.011677  -0.000013   0.035659
    18  H   -0.000002   0.000000   0.001180  -0.010596  -0.000028   0.031232
              13         14         15         16         17         18
     1  C    0.329611  -0.036682  -0.000367  -0.001129   0.001513   0.001961
     2  C    0.023191   0.025968  -0.006966  -0.008730   0.008647   0.018629
     3  C    0.025949   0.023249   0.008697   0.018711  -0.006898  -0.008616
     4  C   -0.036690   0.329571   0.001539   0.001999  -0.000347  -0.001105
     5  C    0.024439   0.007608   0.001834   0.003689  -0.000330  -0.000491
     6  C    0.007661   0.024451  -0.000330  -0.000489   0.001828   0.003678
     7  O   -0.003932   0.000013   0.000000   0.000000  -0.000000  -0.000002
     8  O    0.000012  -0.003922  -0.000000  -0.000002   0.000000   0.000000
     9  O   -0.000034  -0.005012  -0.011661  -0.010593   0.001442   0.001180
    10  O   -0.004998  -0.000034   0.001444   0.001184  -0.011677  -0.010596
    11  Mg   0.001279   0.001277  -0.000013  -0.000028  -0.000013  -0.000028
    12  Mg   0.002611   0.002615   0.035644   0.031226   0.035659   0.031232
    13  H    0.510589   0.000022  -0.000000  -0.000000   0.000002  -0.000003
    14  H    0.000022   0.510593   0.000002  -0.000003  -0.000000  -0.000000
    15  H   -0.000000   0.000002   0.607603   0.381342  -0.001945  -0.001062
    16  H   -0.000000  -0.000003   0.381342   0.483117  -0.001062  -0.000422
    17  H    0.000002  -0.000000  -0.001945  -0.001062   0.607609   0.381335
    18  H   -0.000003  -0.000000  -0.001062  -0.000422   0.381335   0.483101
 Mulliken charges:
               1
     1  C   -0.736692
     2  C    0.242975
     3  C    0.243164
     4  C   -0.736787
     5  C    0.261982
     6  C    0.262283
     7  O   -0.506209
     8  O   -0.506387
     9  O   -0.517851
    10  O   -0.518107
    11  Mg   1.053112
    12  Mg   1.047063
    13  H    0.120291
    14  H    0.120285
    15  H   -0.015760
    16  H    0.101191
    17  H   -0.015762
    18  H    0.101209
 Sum of Mulliken charges =  -0.00000
 Mulliken charges with hydrogens summed into heavy atoms:
               1
     1  C   -0.616401
     2  C    0.242975
     3  C    0.243164
     4  C   -0.616502
     5  C    0.261982
     6  C    0.262283
     7  O   -0.506209
     8  O   -0.506387
     9  O   -0.517851
    10  O   -0.518107
    11  Mg   1.053112
    12  Mg   1.217940
         Mulliken charges condensed to fragments:
      1     -0.170877
      2      0.085431
      3      0.085447
 Electronic spatial extent (au):  <R**2>=           2834.5346
 Charge=             -0.0000 electrons
 Dipole moment (field-independent basis, Debye):
    X=              0.9538    Y=             -0.0015    Z=             -0.0005  Tot=              0.9538
 Quadrupole moment (field-independent basis, Debye-Ang):
   XX=             30.5252   YY=            -96.9871   ZZ=            -76.2939
   XY=             -0.0093   XZ=             -0.0015   YZ=             -0.0009
 Traceless Quadrupole moment (field-independent basis, Debye-Ang):
   XX=             78.1105   YY=            -49.4018   ZZ=            -28.7087
   XY=             -0.0093   XZ=             -0.0015   YZ=             -0.0009
 Octapole moment (field-independent basis, Debye-Ang**2):
  XXX=            -35.5595  YYY=             -0.0070  ZZZ=             -0.0045  XYY=             17.5220
  XXY=             -0.0269  XXZ=              0.0012  XZZ=             -4.0460  YZZ=             -0.0021
  YYZ=              0.0081  XYZ=             -0.0036
 Hexadecapole moment (field-independent basis, Debye-Ang**3):
 XXXX=              4.1069 YYYY=           -713.9601 ZZZZ=            -85.7987 XXXY=             -0.1449
 XXXZ=             -0.0194 YYYX=             -0.0500 YYYZ=             -0.0021 ZZZX=             -0.1024
 ZZZY=              0.0006 XXYY=           -666.0938 XXZZ=           -423.5008 YYZZ=           -138.9042
 XXYZ=             -0.0099 YYXZ=              0.0017 ZZXY=             -0.0035
 N-N= 7.960011216105D+02 E-N=-3.803913103361D+03  KE= 9.283915526482D+02
 CPIOFr:  IOpCl= 0 IRwI=-1 IRwCP=  731 ICalc= -1 LCPTot=      154727 Len1MO=      406028 IndFrg=      154727
 CPIOFr:  IOpCl= 0 IRwI=-1 IRwCP=  731 ICalc=  0 LCPTot=      154727 Len1MO=      406028 IndFrg=      560755
 Counterpoise: doing calculation for fragment   1 using the basis set of the full-system, NewBq=T
 Basis read from rwf:  (5D, 7F)
 There are   328 symmetry adapted cartesian basis functions of A   symmetry.
 There are   316 symmetry adapted basis functions of A   symmetry.
   316 basis functions,   508 primitive gaussians,   328 cartesian basis functions
    47 alpha electrons       47 beta electrons
       nuclear repulsion energy       750.4916251627 Hartrees.
 NAtoms=   18 NActive=   18 NUniq=   18 SFac= 1.00D+00 NAtFMM=   60 NAOKFM=F Big=F
 Integral buffers will be    131072 words long.
 Raffenetti 1 integral format.
 Two-electron integral symmetry is turned on.
 One-electron integrals computed using PRISM.
 NBasis=   316 RedAO= T EigKep=  3.29D-06  NBF=   316
 NBsUse=   315 1.00D-06 EigRej=  8.41D-07 NBFU=   315
 ExpMin= 1.46D-02 ExpMax= 4.39D+04 ExpMxC= 1.51D+03 IAcc=3 IRadAn=         5 AccDes= 0.00D+00
 Harris functional with IExCor=  205 and IRadAn=       5 diagonalized for initial guess.
 HarFok:  IExCor=  205 AccDes= 0.00D+00 IRadAn=         5 IDoV= 1 UseB2=F ITyADJ=14
 ICtDFT=  3500011 ScaDFX=  1.000000  1.000000  1.000000  1.000000
 FoFCou: FMM=F IPFlag=           0 FMFlag=      100000 FMFlg1=           0
         NFxFlg=           0 DoJE=T BraDBF=F KetDBF=T FulRan=T
         wScrn=  0.000000 ICntrl=       500 IOpCl=  0 I1Cent=   200000004 NGrid=           0
         NMat0=    1 NMatS0=      1 NMatT0=    0 NMatD0=    1 NMtDS0=    0 NMtDT0=    0
 Petite list used in FoFCou.
 Requested convergence on RMS density matrix=1.00D-08 within 128 cycles.
 Requested convergence on MAX density matrix=1.00D-06.
 Requested convergence on             energy=1.00D-06.
 No special actions if energy rises.
 SCF Done:  E(RHF) =  -927.200769802     A.U. after   15 cycles
            NFock= 15  Conv=0.64D-08     -V/T= 2.0012
 ExpMin= 1.46D-02 ExpMax= 4.39D+04 ExpMxC= 1.51D+03 IAcc=3 IRadAn=         5 AccDes= 0.00D+00
 HarFok:  IExCor=  205 AccDes= 0.00D+00 IRadAn=         5 IDoV=-2 UseB2=F ITyADJ=14
 ICtDFT= 12500011 ScaDFX=  1.000000  1.000000  1.000000  1.000000
 Range of M.O.s used for correlation:    21   315
 NBasis=   316 NAE=    47 NBE=    47 NFC=    20 NFV=     0
 NROrb=    295 NOA=    27 NOB=    27 NVA=   268 NVB=   268

 **** Warning!!: The largest alpha MO coefficient is  0.10650829D+03

 Fully direct method using O(OVN) memory.
 JobTyp=1 Pass  1:  I=   1 to  27 NPSUse= 16 ParTrn=T ParDer=T DoDerP=F.
 Spin components of T(2) and E(2):
     alpha-alpha T2 =       0.7965899194D-01 E2=     -0.2353119587D+00
     alpha-beta  T2 =       0.3878944146D+00 E2=     -0.1202627311D+01
     beta-beta   T2 =       0.7965899194D-01 E2=     -0.2353119587D+00
 ANorm=    0.1243869928D+01
 E2 =    -0.1673251229D+01 EUMP2 =    -0.92887402103036D+03

 **********************************************************************

            Population analysis using the SCF Density.

 **********************************************************************

 Orbital symmetries:
       Occupied  (A) (A) (A) (A) (A) (A) (A) (A) (A) (A) (A) (A)
                 (A) (A) (A) (A) (A) (A) (A) (A) (A) (A) (A) (A)
                 (A) (A) (A) (A) (A) (A) (A) (A) (A) (A) (A) (A)
                 (A) (A) (A) (A) (A) (A) (A) (A) (A) (A) (A)
       Virtual   (A) (A) (A) (A) (A) (A) (A) (A) (A) (A) (A) (A)
                 (A) (A) (A) (A) (A) (A) (A) (A) (A) (A) (A) (A)
                 (A) (A) (A) (A) (A) (A) (A) (A) (A) (A) (A) (A)
                 (A) (A) (A) (A) (A) (A) (A) (A) (A) (A) (A) (A)
                 (A) (A) (A) (A) (A) (A) (A) (A) (A) (A) (A) (A)
                 (A) (A) (A) (A) (A) (A) (A) (A) (A) (A) (A) (A)
                 (A) (A) (A) (A) (A) (A) (A) (A) (A) (A) (A) (A)
                 (A) (A) (A) (A) (A) (A) (A) (A) (A) (A) (A) (A)
                 (A) (A) (A) (A) (A) (A) (A) (A) (A) (A) (A) (A)
                 (A) (A) (A) (A) (A) (A) (A) (A) (A) (A) (A) (A)
                 (A) (A) (A) (A) (A) (A) (A) (A) (A) (A) (A) (A)
                 (A) (A) (A) (A) (A) (A) (A) (A) (A) (A) (A) (A)
                 (A) (A) (A) (A) (A) (A) (A) (A) (A) (A) (A) (A)
                 (A) (A) (A) (A) (A) (A) (A) (A) (A) (A) (A) (A)
                 (A) (A) (A) (A) (A) (A) (A) (A) (A) (A) (A) (A)
                 (A) (A) (A) (A) (A) (A) (A) (A) (A) (A) (A) (A)
                 (A) (A) (A) (A) (A) (A) (A) (A) (A) (A) (A) (A)
                 (A) (A) (A) (A) (A) (A) (A) (A) (A) (A) (A) (A)
                 (A) (A) (A) (A) (A) (A) (A) (A) (A) (A) (A) (A)
                 (A) (A) (A) (A) (A) (A) (A) (A) (A) (A) (A) (A)
                 (A) (A) (A) (A) (A) (A) (A) (A) (A) (A) (A) (A)
                 (A) (A) (A) (A) (A) (A) (A) (A) (A) (A) (A) (A)
                 (A) (A) (A) (A)
 The electronic state is 1-A.
 Alpha  occ. eigenvalues --  -49.07633 -49.07444 -20.48157 -20.48156 -20.48155
 Alpha  occ. eigenvalues --  -20.48154 -11.22661 -11.22621 -11.22561 -11.22521
 Alpha  occ. eigenvalues --  -11.16369 -11.16367  -3.80809  -3.80639  -2.33090
 Alpha  occ. eigenvalues --   -2.33056  -2.32937  -2.32889  -2.32881  -2.32715
 Alpha  occ. eigenvalues --   -1.28655  -1.28045  -1.24971  -1.24683  -1.04190
 Alpha  occ. eigenvalues --   -0.92909  -0.88441  -0.76870  -0.71679  -0.63801
 Alpha  occ. eigenvalues --   -0.60661  -0.58003  -0.53886  -0.53326  -0.52273
 Alpha  occ. eigenvalues --   -0.52048  -0.49983  -0.49668  -0.45769  -0.44653
 Alpha  occ. eigenvalues --   -0.44054  -0.42221  -0.40176  -0.39708  -0.35112
 Alpha  occ. eigenvalues --   -0.24981  -0.19964
 Alpha virt. eigenvalues --   -0.04004  -0.03719   0.02504   0.02846   0.02935
 Alpha virt. eigenvalues --    0.02952   0.03375   0.03519   0.05418   0.06202
 Alpha virt. eigenvalues --    0.07596   0.08254   0.08498   0.09261   0.10773
 Alpha virt. eigenvalues --    0.11102   0.14330   0.14818   0.17028   0.17109
 Alpha virt. eigenvalues --    0.17307   0.18119   0.18306   0.18914   0.19044
 Alpha virt. eigenvalues --    0.19737   0.20697   0.20828   0.21160   0.21933
 Alpha virt. eigenvalues --    0.22530   0.22772   0.23226   0.23253   0.23496
 Alpha virt. eigenvalues --    0.23990   0.24037   0.25424   0.26628   0.26675
 Alpha virt. eigenvalues --    0.26904   0.28685   0.29637   0.30314   0.30961
 Alpha virt. eigenvalues --    0.31628   0.33134   0.35335   0.35465   0.37368
 Alpha virt. eigenvalues --    0.37596   0.38525   0.38688   0.39106   0.39607
 Alpha virt. eigenvalues --    0.41406   0.41492   0.41938   0.42832   0.43781
 Alpha virt. eigenvalues --    0.45569   0.46753   0.47247   0.48167   0.48326
 Alpha virt. eigenvalues --    0.49110   0.49495   0.49584   0.51165   0.51295
 Alpha virt. eigenvalues --    0.52653   0.54398   0.54762   0.55478   0.55964
 Alpha virt. eigenvalues --    0.56296   0.57792   0.58414   0.60413   0.60624
 Alpha virt. eigenvalues --    0.60944   0.61390   0.64974   0.65714   0.68216
 Alpha virt. eigenvalues --    0.70385   0.73164   0.73212   0.74426   0.77406
 Alpha virt. eigenvalues --    0.77641   0.78739   0.78921   0.80213   0.81332
 Alpha virt. eigenvalues --    0.83068   0.83795   0.85190   0.86072   0.87465
 Alpha virt. eigenvalues --    0.90591   0.90911   0.90953   0.92613   0.94387
 Alpha virt. eigenvalues --    0.94467   0.96129   0.97045   0.99332   0.99561
 Alpha virt. eigenvalues --    1.02843   1.02994   1.04934   1.05707   1.08240
 Alpha virt. eigenvalues --    1.09181   1.12327   1.17458   1.18211   1.19434
 Alpha virt. eigenvalues --    1.20589   1.25521   1.25555   1.28945   1.31533
 Alpha virt. eigenvalues --    1.31759   1.33046   1.34427   1.36033   1.40992
 Alpha virt. eigenvalues --    1.41309   1.42664   1.43135   1.51153   1.51156
 Alpha virt. eigenvalues --    1.52719   1.52826   1.54307   1.55253   1.56485
 Alpha virt. eigenvalues --    1.57446   1.59484   1.59714   1.63785   1.66238
 Alpha virt. eigenvalues --    1.66769   1.70439   1.71305   1.81985   1.83045
 Alpha virt. eigenvalues --    1.89624   1.90327   1.91689   1.94481   2.00213
 Alpha virt. eigenvalues --    2.00242   2.01863   2.05183   2.07854   2.08806
 Alpha virt. eigenvalues --    2.10218   2.16377   2.18363   2.21909   2.22538
 Alpha virt. eigenvalues --    2.24907   2.27987   2.29011   2.29533   2.30182
 Alpha virt. eigenvalues --    2.33922   2.34658   2.34958   2.37178   2.38883
 Alpha virt. eigenvalues --    2.39390   2.40871   2.42133   2.49738   2.50185
 Alpha virt. eigenvalues --    2.54307   2.58072   2.64415   2.67424   2.72392
 Alpha virt. eigenvalues --    2.79864   2.82607   2.90254   2.94947   3.03023
 Alpha virt. eigenvalues --    3.06871   3.09101   3.09464   3.12790   3.18509
 Alpha virt. eigenvalues --    3.19438   3.26987   3.29321   3.33387   3.36211
 Alpha virt. eigenvalues --    3.36390   3.38576   3.40096   3.44779   3.45823
 Alpha virt. eigenvalues --    3.47360   3.50797   3.52354   3.53389   3.54841
 Alpha virt. eigenvalues --    3.60891   3.63346   3.65575   3.66331   3.67000
 Alpha virt. eigenvalues --    3.67391   3.69462   3.71843   3.83367   3.84572
 Alpha virt. eigenvalues --    3.87522   3.92221   3.93002   3.94171   4.00743
 Alpha virt. eigenvalues --    4.11937   4.18884   4.23248   4.28087   4.28259
 Alpha virt. eigenvalues --    4.62294   4.64164   4.69157   4.71820   4.73727
 Alpha virt. eigenvalues --    4.93605   4.95425   5.32075   5.64671   5.66828
 Alpha virt. eigenvalues --    5.69480   5.71110   5.79429   5.83013   5.89917
 Alpha virt. eigenvalues --    5.91769   6.14363   6.33599   6.35704   6.37893
 Alpha virt. eigenvalues --    6.41373   6.41414   6.66102   6.68513   6.73976
 Alpha virt. eigenvalues --    6.74973  24.79442  25.06685  25.09713  25.16003
 Alpha virt. eigenvalues --   25.30482  25.36287  51.71421  51.74611  51.79049
 Alpha virt. eigenvalues --   51.80970 105.76392 105.87762
          Condensed to atoms (all electrons):
               1          2          3          4          5          6
     1  C   24.306101   4.465082 -12.103355  -2.104960 -11.772920   5.145579
     2  C    4.465082  27.369618 -13.404883 -12.097647  -4.013261   2.809901
     3  C  -12.103355 -13.404883  27.378768   4.477156   2.811550  -4.029869
     4  C   -2.104960 -12.097647   4.477156  24.304965   5.132945 -11.776415
     5  C  -11.772920  -4.013261   2.811550   5.132945  27.795641 -14.905601
     6  C    5.145579   2.809901  -4.029869 -11.776415 -14.905601  27.804009
     7  O   -1.012433  -0.051537   0.113194   0.144104   0.889334  -0.148752
     8  O    0.144168   0.113086  -0.051879  -1.012440  -0.148423   0.889319
     9  O    0.113344   0.687832   0.035113  -0.925593  -0.046749   0.102072
    10  O   -0.925315   0.035768   0.687488   0.113361   0.101944  -0.047102
    11  Mg   0.094852  -0.037522  -0.037570   0.094819  -0.158382  -0.157393
    12  Mg   0.086355  -0.169124  -0.169037   0.086193   0.014192   0.014160
    13  H    0.327202   0.023856   0.027054  -0.036281   0.024744   0.007145
    14  H   -0.036272   0.027069   0.023913   0.327164   0.007089   0.024760
    15  H    0.000256   0.000143  -0.002583   0.000275  -0.000033   0.000010
    16  H   -0.000231  -0.001182   0.004961  -0.000083   0.000228   0.000039
    17  H    0.000276  -0.002568   0.000130   0.000256   0.000010  -0.000033
    18  H   -0.000086   0.004936  -0.001156  -0.000230   0.000039   0.000228
               7          8          9         10         11         12
     1  C   -1.012433   0.144168   0.113344  -0.925315   0.094852   0.086355
     2  C   -0.051537   0.113086   0.687832   0.035768  -0.037522  -0.169124
     3  C    0.113194  -0.051879   0.035113   0.687488  -0.037570  -0.169037
     4  C    0.144104  -1.012440  -0.925593   0.113361   0.094819   0.086193
     5  C    0.889334  -0.148423  -0.046749   0.101944  -0.158382   0.014192
     6  C   -0.148752   0.889319   0.102072  -0.047102  -0.157393   0.014160
     7  O    8.391555  -0.009812   0.000091  -0.000126   0.192324   0.001080
     8  O   -0.009812   8.391671  -0.000126   0.000090   0.192456   0.001079
     9  O    0.000091  -0.000126   8.372459  -0.002605   0.001008   0.162933
    10  O   -0.000126   0.000090  -0.002605   8.372519   0.001007   0.162989
    11  Mg   0.192324   0.192456   0.001008   0.001007  10.760070  -0.003625
    12  Mg   0.001080   0.001079   0.162933   0.162989  -0.003625  10.644300
    13  H   -0.003901   0.000009   0.000014  -0.004404   0.001332   0.002688
    14  H    0.000010  -0.003890  -0.004419   0.000014   0.001329   0.002692
    15  H    0.000000   0.000000  -0.001067   0.000049   0.000004  -0.000875
    16  H   -0.000000  -0.000001   0.004231  -0.000102  -0.000008   0.002585
    17  H    0.000000   0.000000   0.000050  -0.001072   0.000004  -0.000871
    18  H   -0.000001  -0.000000  -0.000104   0.004244  -0.000008   0.002579
              13         14         15         16         17         18
     1  C    0.327202  -0.036272   0.000256  -0.000231   0.000276  -0.000086
     2  C    0.023856   0.027069   0.000143  -0.001182  -0.002568   0.004936
     3  C    0.027054   0.023913  -0.002583   0.004961   0.000130  -0.001156
     4  C   -0.036281   0.327164   0.000275  -0.000083   0.000256  -0.000230
     5  C    0.024744   0.007089  -0.000033   0.000228   0.000010   0.000039
     6  C    0.007145   0.024760   0.000010   0.000039  -0.000033   0.000228
     7  O   -0.003901   0.000010   0.000000  -0.000000   0.000000  -0.000001
     8  O    0.000009  -0.003890   0.000000  -0.000001   0.000000  -0.000000
     9  O    0.000014  -0.004419  -0.001067   0.004231   0.000050  -0.000104
    10  O   -0.004404   0.000014   0.000049  -0.000102  -0.001072   0.004244
    11  Mg   0.001332   0.001329   0.000004  -0.000008   0.000004  -0.000008
    12  Mg   0.002688   0.002692  -0.000875   0.002585  -0.000871   0.002579
    13  H    0.507946   0.000022   0.000000  -0.000000   0.000002  -0.000011
    14  H    0.000022   0.507951   0.000002  -0.000011   0.000000  -0.000000
    15  H    0.000000   0.000002   0.000701  -0.000785   0.000087  -0.000071
    16  H   -0.000000  -0.000011  -0.000785   0.001392  -0.000071   0.000068
    17  H    0.000002   0.000000   0.000087  -0.000071   0.000702  -0.000785
    18  H   -0.000011  -0.000000  -0.000071   0.000068  -0.000785   0.001392
 Mulliken charges:
               1
     1  C   -0.727644
     2  C    0.240433
     3  C    0.241005
     4  C   -0.727589
     5  C    0.267652
     6  C    0.267942
     7  O   -0.505131
     8  O   -0.505309
     9  O   -0.498485
    10  O   -0.498748
    11  Mg   1.055303
    12  Mg   1.159706
    13  H    0.122582
    14  H    0.122577
    15  H    0.003886
    16  H   -0.011031
    17  H    0.003885
    18  H   -0.011036
 Sum of Mulliken charges =  -0.00000
 Mulliken charges with hydrogens summed into heavy atoms:
               1
     1  C   -0.605062
     2  C    0.240433
     3  C    0.241005
     4  C   -0.605012
     5  C    0.267652
     6  C    0.267942
     7  O   -0.505131
     8  O   -0.505309
     9  O   -0.498485
    10  O   -0.498748
    11  Mg   1.055303
    12  Mg   1.145411
         Mulliken charges condensed to fragments:
      1      0.014295
      2     -0.007145
      3     -0.007150
 Electronic spatial extent (au):  <R**2>=           2436.1541
 Charge=             -0.0000 electrons
 Dipole moment (field-independent basis, Debye):
    X=              0.2394    Y=             -0.0015    Z=             -0.0017  Tot=              0.2394
 Quadrupole moment (field-independent basis, Debye-Ang):
   XX=             29.9808   YY=            -96.1355   ZZ=            -72.2441
   XY=             -0.0094   XZ=             -0.0073   YZ=             -0.0008
 Traceless Quadrupole moment (field-independent basis, Debye-Ang):
   XX=             76.1137   YY=            -50.0026   ZZ=            -26.1111
   XY=             -0.0094   XZ=             -0.0073   YZ=             -0.0008
 Octapole moment (field-independent basis, Debye-Ang**2):
  XXX=            -12.8565  YYY=             -0.0077  ZZZ=              0.0147  XYY=             21.3418
  XXY=             -0.0286  XXZ=             -0.0218  XZZ=             15.6094  YZZ=             -0.0035
  YYZ=              0.0057  XYZ=             -0.0029
 Hexadecapole moment (field-independent basis, Debye-Ang**3):
 XXXX=            354.2049 YYYY=           -673.1978 ZZZZ=            -81.7156 XXXY=             -0.1639
 XXXZ=             -0.0753 YYYX=             -0.0563 YYYZ=             -0.0033 ZZZX=             -0.0069
 ZZZY=             -0.0011 XXYY=           -628.4748 XXZZ=           -322.9889 YYZZ=           -128.2225
 XXYZ=             -0.0071 YYXZ=             -0.0060 ZZXY=             -0.0103
 N-N= 7.504916251627D+02 E-N=-3.708271915040D+03  KE= 9.260980121308D+02
 CPIOFr:  IOpCl= 0 IRwI=-1 IRwCP=  731 ICalc=  1 LCPTot=      154727 Len1MO=      406028 IndFrg=      966783
 Counterpoise: doing calculation for fragment   2 using the basis set of the full-system, NewBq=T
 Basis read from rwf:  (5D, 7F)
 There are   328 symmetry adapted cartesian basis functions of A   symmetry.
 There are   316 symmetry adapted basis functions of A   symmetry.
   316 basis functions,   508 primitive gaussians,   328 cartesian basis functions
     1 alpha electrons        1 beta electrons
       nuclear repulsion energy         0.7071087025 Hartrees.
 NAtoms=   18 NActive=   18 NUniq=   18 SFac= 1.00D+00 NAtFMM=   60 NAOKFM=F Big=F
 Integral buffers will be    131072 words long.
 Raffenetti 1 integral format.
 Two-electron integral symmetry is turned on.
 One-electron integrals computed using PRISM.
 NBasis=   316 RedAO= T EigKep=  3.29D-06  NBF=   316
 NBsUse=   315 1.00D-06 EigRej=  8.41D-07 NBFU=   315
 ExpMin= 1.46D-02 ExpMax= 4.39D+04 ExpMxC= 1.51D+03 IAcc=3 IRadAn=         5 AccDes= 0.00D+00
 Harris functional with IExCor=  205 and IRadAn=       5 diagonalized for initial guess.
 HarFok:  IExCor=  205 AccDes= 0.00D+00 IRadAn=         5 IDoV= 1 UseB2=F ITyADJ=14
 ICtDFT=  3500011 ScaDFX=  1.000000  1.000000  1.000000  1.000000
 FoFCou: FMM=F IPFlag=           0 FMFlag=      100000 FMFlg1=           0
         NFxFlg=           0 DoJE=T BraDBF=F KetDBF=T FulRan=T
         wScrn=  0.000000 ICntrl=       500 IOpCl=  0 I1Cent=   200000004 NGrid=           0
         NMat0=    1 NMatS0=      1 NMatT0=    0 NMatD0=    1 NMtDS0=    0 NMtDT0=    0
 Petite list used in FoFCou.
 Requested convergence on RMS density matrix=1.00D-08 within 128 cycles.
 Requested convergence on MAX density matrix=1.00D-06.
 Requested convergence on             energy=1.00D-06.
 No special actions if energy rises.
 SCF Done:  E(RHF) =  -1.13246776966     A.U. after    7 cycles
            NFock=  7  Conv=0.11D-08     -V/T= 2.0157
 Range of M.O.s used for correlation:     1   315
 NBasis=   316 NAE=     1 NBE=     1 NFC=     0 NFV=     0
 NROrb=    315 NOA=     1 NOB=     1 NVA=   314 NVB=   314

 **** Warning!!: The largest alpha MO coefficient is  0.10618120D+03

 Fully direct method using O(OVN) memory.
 JobTyp=1 Pass  1:  I=   1 to   1 NPSUse= 16 ParTrn=T ParDer=T DoDerP=F.
 Spin components of T(2) and E(2):
     alpha-alpha T2 =       0.0000000000D+00 E2=      0.0000000000D+00
     alpha-beta  T2 =       0.9503482957D-02 E2=     -0.2828065653D-01
     beta-beta   T2 =       0.0000000000D+00 E2=      0.0000000000D+00
 ANorm=    0.1004740505D+01
 E2 =    -0.2828065653D-01 EUMP2 =    -0.11607484261844D+01

 **********************************************************************

            Population analysis using the SCF Density.

 **********************************************************************

 Orbital symmetries:
       Occupied  (A)
       Virtual   (A) (A) (A) (A) (A) (A) (A) (A) (A) (A) (A) (A)
                 (A) (A) (A) (A) (A) (A) (A) (A) (A) (A) (A) (A)
                 (A) (A) (A) (A) (A) (A) (A) (A) (A) (A) (A) (A)
                 (A) (A) (A) (A) (A) (A) (A) (A) (A) (A) (A) (A)
                 (A) (A) (A) (A) (A) (A) (A) (A) (A) (A) (A) (A)
                 (A) (A) (A) (A) (A) (A) (A) (A) (A) (A) (A) (A)
                 (A) (A) (A) (A) (A) (A) (A) (A) (A) (A) (A) (A)
                 (A) (A) (A) (A) (A) (A) (A) (A) (A) (A) (A) (A)
                 (A) (A) (A) (A) (A) (A) (A) (A) (A) (A) (A) (A)
                 (A) (A) (A) (A) (A) (A) (A) (A) (A) (A) (A) (A)
                 (A) (A) (A) (A) (A) (A) (A) (A) (A) (A) (A) (A)
                 (A) (A) (A) (A) (A) (A) (A) (A) (A) (A) (A) (A)
                 (A) (A) (A) (A) (A) (A) (A) (A) (A) (A) (A) (A)
                 (A) (A) (A) (A) (A) (A) (A) (A) (A) (A) (A) (A)
                 (A) (A) (A) (A) (A) (A) (A) (A) (A) (A) (A) (A)
                 (A) (A) (A) (A) (A) (A) (A) (A) (A) (A) (A) (A)
                 (A) (A) (A) (A) (A) (A) (A) (A) (A) (A) (A) (A)
                 (A) (A) (A) (A) (A) (A) (A) (A) (A) (A) (A) (A)
                 (A) (A) (A) (A) (A) (A) (A) (A) (A) (A) (A) (A)
                 (A) (A) (A) (A) (A) (A) (A) (A) (A) (A) (A) (A)
                 (A) (A) (A) (A) (A) (A) (A) (A) (A) (A) (A) (A)
                 (A) (A) (A) (A) (A) (A) (A) (A) (A) (A) (A) (A)
                 (A) (A) (A) (A) (A) (A) (A) (A) (A) (A) (A) (A)
                 (A) (A) (A) (A) (A) (A) (A) (A) (A) (A) (A) (A)
                 (A) (A) (A) (A) (A) (A) (A) (A) (A) (A) (A) (A)
                 (A) (A) (A) (A) (A) (A) (A) (A) (A) (A) (A) (A)
                 (A) (A)
 The electronic state is 1-A.
 Alpha  occ. eigenvalues --   -0.59209
 Alpha virt. eigenvalues --    0.01502   0.02329   0.02686   0.02726   0.03327
 Alpha virt. eigenvalues --    0.03700   0.03721   0.04888   0.07276   0.08296
 Alpha virt. eigenvalues --    0.08841   0.09291   0.10462   0.10503   0.10772
 Alpha virt. eigenvalues --    0.11293   0.11750   0.12512   0.12741   0.12870
 Alpha virt. eigenvalues --    0.13330   0.15113   0.15325   0.16675   0.18095
 Alpha virt. eigenvalues --    0.18368   0.18905   0.19407   0.19836   0.20822
 Alpha virt. eigenvalues --    0.20937   0.22025   0.22909   0.23843   0.24153
 Alpha virt. eigenvalues --    0.24570   0.24964   0.25207   0.25959   0.26328
 Alpha virt. eigenvalues --    0.27190   0.28750   0.29475   0.29519   0.30404
 Alpha virt. eigenvalues --    0.31132   0.31767   0.32082   0.34095   0.34445
 Alpha virt. eigenvalues --    0.34901   0.35937   0.36208   0.36348   0.36362
 Alpha virt. eigenvalues --    0.36465   0.38306   0.40226   0.40736   0.41031
 Alpha virt. eigenvalues --    0.42769   0.44061   0.44619   0.45508   0.46728
 Alpha virt. eigenvalues --    0.46997   0.47439   0.49761   0.49961   0.50534
 Alpha virt. eigenvalues --    0.51537   0.52134   0.53864   0.55153   0.56302
 Alpha virt. eigenvalues --    0.58850   0.59521   0.60698   0.64631   0.65231
 Alpha virt. eigenvalues --    0.66654   0.67478   0.71395   0.71486   0.71890
 Alpha virt. eigenvalues --    0.73114   0.73847   0.74109   0.75110   0.76946
 Alpha virt. eigenvalues --    0.77355   0.77458   0.81390   0.82755   0.84962
 Alpha virt. eigenvalues --    0.85938   0.87943   0.88625   0.90491   0.90884
 Alpha virt. eigenvalues --    0.92479   0.95000   0.96555   0.96765   0.97353
 Alpha virt. eigenvalues --    0.97923   0.99034   0.99225   0.99894   1.00667
 Alpha virt. eigenvalues --    1.02438   1.03630   1.05032   1.10151   1.10546
 Alpha virt. eigenvalues --    1.10979   1.11515   1.15047   1.17548   1.18150
 Alpha virt. eigenvalues --    1.24676   1.26391   1.26663   1.27492   1.28308
 Alpha virt. eigenvalues --    1.29935   1.35181   1.35466   1.40400   1.40830
 Alpha virt. eigenvalues --    1.41912   1.43146   1.44118   1.46198   1.50696
 Alpha virt. eigenvalues --    1.53483   1.53731   1.57883   1.61139   1.62776
 Alpha virt. eigenvalues --    1.70660   1.72233   1.73108   1.73158   1.75488
 Alpha virt. eigenvalues --    1.80366   1.81689   1.82046   1.82570   1.86696
 Alpha virt. eigenvalues --    1.87671   1.90489   1.92396   1.95336   1.98549
 Alpha virt. eigenvalues --    1.99042   2.00406   2.08198   2.10363   2.10745
 Alpha virt. eigenvalues --    2.14596   2.15829   2.15840   2.19803   2.23370
 Alpha virt. eigenvalues --    2.23510   2.28010   2.30933   2.34996   2.38810
 Alpha virt. eigenvalues --    2.39262   2.42556   2.44850   2.45171   2.48479
 Alpha virt. eigenvalues --    2.49495   2.56537   2.58486   2.58897   2.60128
 Alpha virt. eigenvalues --    2.61497   2.68128   2.74022   2.76886   2.83087
 Alpha virt. eigenvalues --    2.83394   2.84536   2.88517   2.89791   2.92602
 Alpha virt. eigenvalues --    2.94094   2.95050   2.96054   2.99803   3.03950
 Alpha virt. eigenvalues --    3.05478   3.09350   3.09499   3.09891   3.13220
 Alpha virt. eigenvalues --    3.14305   3.24992   3.25191   3.26724   3.31930
 Alpha virt. eigenvalues --    3.34067   3.34995   3.36598   3.37242   3.41851
 Alpha virt. eigenvalues --    3.47252   3.48221   3.53941   3.54937   3.56222
 Alpha virt. eigenvalues --    3.65832   3.77364   3.90711   4.04176   4.08018
 Alpha virt. eigenvalues --    4.21338   4.23214   4.23553   4.27887   4.33439
 Alpha virt. eigenvalues --    4.37731   4.41016   4.45047   4.48304   4.60531
 Alpha virt. eigenvalues --    4.61642   4.62798   4.63146   4.80243   4.81663
 Alpha virt. eigenvalues --    4.85917   4.86371   4.87112   4.90633   4.91175
 Alpha virt. eigenvalues --    4.92349   4.95274   4.96515   5.01613   5.02446
 Alpha virt. eigenvalues --    5.04153   5.19814   5.39847   5.59621   5.61187
 Alpha virt. eigenvalues --    5.73873   5.90632   7.01742   7.03305   7.08834
 Alpha virt. eigenvalues --    7.10493   7.15130   7.23448   7.23845   7.37233
 Alpha virt. eigenvalues --    7.73588   7.74913   7.78551   7.83304   7.83499
 Alpha virt. eigenvalues --    7.83690   8.04407   8.06091   8.16368   8.26573
 Alpha virt. eigenvalues --    8.34535   8.96903   9.67329  10.11118  10.17911
 Alpha virt. eigenvalues --   10.18963  10.27098  10.29247  13.47987  13.50155
 Alpha virt. eigenvalues --   13.52721  13.54267  13.65670  13.69335  13.76156
 Alpha virt. eigenvalues --   13.77107  13.96031  14.07245  14.09665  14.11845
 Alpha virt. eigenvalues --   18.52005  18.58204  18.65994  18.69144  24.88816
 Alpha virt. eigenvalues --   24.89230  25.11076  25.12372  25.19636  25.19889
 Alpha virt. eigenvalues --   41.99328  42.05923  69.74132  69.91327  69.95187
 Alpha virt. eigenvalues --   69.95547  70.02851  70.05416 139.78394 139.79342
 Alpha virt. eigenvalues --  139.80819 139.81499 308.90619 309.04210
          Condensed to atoms (all electrons):
               1          2          3          4          5          6
     1  C    0.003534  -0.005166   0.007648  -0.001158  -0.009596   0.005509
     2  C   -0.005166   0.019009  -0.011250  -0.000508   0.008273  -0.004752
     3  C    0.007648  -0.011250   0.055978  -0.015574  -0.052122   0.024545
     4  C   -0.001158  -0.000508  -0.015574   0.005628   0.014251  -0.006230
     5  C   -0.009596   0.008273  -0.052122   0.014251   0.056307  -0.028365
     6  C    0.005509  -0.004752   0.024545  -0.006230  -0.028365   0.015231
     7  O   -0.000461   0.000526  -0.000817   0.000116   0.001207  -0.000749
     8  O    0.000228  -0.000338   0.001195  -0.000293  -0.001348   0.000662
     9  O   -0.000441   0.002677  -0.005898   0.000970   0.003185  -0.001348
    10  O    0.000228  -0.003155  -0.000237   0.000591   0.001525  -0.000899
    11  Mg  -0.000544   0.000577  -0.001718   0.000295   0.002198  -0.001192
    12  Mg   0.000050  -0.005199  -0.002876   0.001927   0.005102  -0.002749
    13  H    0.000112  -0.000082   0.000188  -0.000033  -0.000287   0.000195
    14  H    0.000030  -0.000043   0.000563  -0.000187  -0.000454   0.000167
    15  H    0.000367  -0.009101   0.008511   0.001351   0.000843  -0.000294
    16  H    0.000503  -0.011845   0.010350   0.002872   0.001973  -0.000622
    17  H   -0.000005   0.000066  -0.000027  -0.000003  -0.000004   0.000003
    18  H    0.000003  -0.000037   0.000013   0.000001   0.000001  -0.000001
               7          8          9         10         11         12
     1  C   -0.000461   0.000228  -0.000441   0.000228  -0.000544   0.000050
     2  C    0.000526  -0.000338   0.002677  -0.003155   0.000577  -0.005199
     3  C   -0.000817   0.001195  -0.005898  -0.000237  -0.001718  -0.002876
     4  C    0.000116  -0.000293   0.000970   0.000591   0.000295   0.001927
     5  C    0.001207  -0.001348   0.003185   0.001525   0.002198   0.005102
     6  C   -0.000749   0.000662  -0.001348  -0.000899  -0.001192  -0.002749
     7  O    0.000087  -0.000029   0.000020   0.000009   0.000054   0.000055
     8  O   -0.000029   0.000062  -0.000059  -0.000004  -0.000053  -0.000038
     9  O    0.000020  -0.000059   0.002675  -0.000303   0.000059  -0.000750
    10  O    0.000009  -0.000004  -0.000303   0.000851   0.000019   0.001347
    11  Mg   0.000054  -0.000053   0.000059   0.000019   0.000249   0.000076
    12  Mg   0.000055  -0.000038  -0.000750   0.001347   0.000076   0.003024
    13  H   -0.000017   0.000002  -0.000006  -0.000020  -0.000009  -0.000055
    14  H   -0.000002   0.000012  -0.000056  -0.000004  -0.000013  -0.000025
    15  H    0.000000  -0.000000  -0.009718   0.000868   0.000013   0.001626
    16  H    0.000000  -0.000001  -0.016568   0.001049   0.000022   0.004006
    17  H   -0.000000   0.000000   0.000012  -0.000015  -0.000000  -0.000021
    18  H    0.000000  -0.000000  -0.000003   0.000010   0.000000   0.000011
              13         14         15         16         17         18
     1  C    0.000112   0.000030   0.000367   0.000503  -0.000005   0.000003
     2  C   -0.000082  -0.000043  -0.009101  -0.011845   0.000066  -0.000037
     3  C    0.000188   0.000563   0.008511   0.010350  -0.000027   0.000013
     4  C   -0.000033  -0.000187   0.001351   0.002872  -0.000003   0.000001
     5  C   -0.000287  -0.000454   0.000843   0.001973  -0.000004   0.000001
     6  C    0.000195   0.000167  -0.000294  -0.000622   0.000003  -0.000001
     7  O   -0.000017  -0.000002   0.000000   0.000000  -0.000000   0.000000
     8  O    0.000002   0.000012  -0.000000  -0.000001   0.000000  -0.000000
     9  O   -0.000006  -0.000056  -0.009718  -0.016568   0.000012  -0.000003
    10  O   -0.000020  -0.000004   0.000868   0.001049  -0.000015   0.000010
    11  Mg  -0.000009  -0.000013   0.000013   0.000022  -0.000000   0.000000
    12  Mg  -0.000055  -0.000025   0.001626   0.004006  -0.000021   0.000011
    13  H    0.000012   0.000000  -0.000000  -0.000000   0.000000  -0.000000
    14  H    0.000000   0.000010  -0.000002  -0.000010   0.000000  -0.000000
    15  H   -0.000000  -0.000002   0.570461   0.424563  -0.000190   0.000017
    16  H   -0.000000  -0.000010   0.424563   0.608138  -0.000110   0.000009
    17  H    0.000000   0.000000  -0.000190  -0.000110   0.000002  -0.000001
    18  H   -0.000000  -0.000000   0.000017   0.000009  -0.000001   0.000002
 Mulliken charges:
               1
     1  C   -0.000839
     2  C    0.020348
     3  C   -0.018472
     4  C   -0.004016
     5  C   -0.002692
     6  C    0.000889
     7  O   -0.000000
     8  O    0.000002
     9  O    0.025550
    10  O   -0.001860
    11  Mg  -0.000034
    12  Mg  -0.005512
    13  H    0.000001
    14  H    0.000012
    15  H    0.010686
    16  H   -0.024329
    17  H    0.000294
    18  H   -0.000025
 Sum of Mulliken charges =  -0.00000
 Mulliken charges with hydrogens summed into heavy atoms:
               1
     1  C   -0.000838
     2  C    0.020348
     3  C   -0.018472
     4  C   -0.004004
     5  C   -0.002692
     6  C    0.000889
     7  O   -0.000000
     8  O    0.000002
     9  O    0.025550
    10  O   -0.001860
    11  Mg  -0.000034
    12  Mg  -0.018886
         Mulliken charges condensed to fragments:
      1      0.013375
      2     -0.013643
      3      0.000269
 Electronic spatial extent (au):  <R**2>=            201.7531
 Charge=             -0.0000 electrons
 Dipole moment (field-independent basis, Debye):
    X=              0.0024    Y=             -0.0026    Z=             -0.0000  Tot=              0.0036
 Quadrupole moment (field-independent basis, Debye-Ang):
   XX=             -1.6769   YY=             -1.8517   ZZ=             -2.0909
   XY=              0.2960   XZ=             -0.0002   YZ=             -0.0001
 Traceless Quadrupole moment (field-independent basis, Debye-Ang):
   XX=              0.1963   YY=              0.0215   ZZ=             -0.2177
   XY=              0.2960   XZ=             -0.0002   YZ=             -0.0001
 Octapole moment (field-independent basis, Debye-Ang**2):
  XXX=            -25.3662  YYY=              8.7603  ZZZ=             -0.0113  XYY=            -10.2425
  XXY=              5.6962  XXZ=             -0.0050  XZZ=            -10.4630  YZZ=              3.2867
  YYZ=             -0.0031  XYZ=              0.0004
 Hexadecapole moment (field-independent basis, Debye-Ang**3):
 XXXX=           -257.1734 YYYY=            -30.0452 ZZZZ=             -2.0824 XXXY=             62.8053
 XXXZ=             -0.0594 YYYX=             45.9630 YYYZ=              0.0153 ZZZX=             -0.0565
 ZZZY=              0.0179 XXYY=            -61.1439 XXZZ=            -53.1391 YYZZ=             -5.9250
 XXYZ=              0.0108 YYXZ=             -0.0175 ZZXY=             16.3820
 N-N= 7.071087025185D-01 E-N=-3.609916071936D+00  KE= 1.114951588470D+00
 CPIOFr:  IOpCl= 0 IRwI=-1 IRwCP=  731 ICalc=  2 LCPTot=      154727 Len1MO=      406028 IndFrg=     1372811
 Counterpoise: doing calculation for fragment   3 using the basis set of the full-system, NewBq=T
 Basis read from rwf:  (5D, 7F)
 There are   328 symmetry adapted cartesian basis functions of A   symmetry.
 There are   316 symmetry adapted basis functions of A   symmetry.
   316 basis functions,   508 primitive gaussians,   328 cartesian basis functions
     1 alpha electrons        1 beta electrons
       nuclear repulsion energy         0.7071035105 Hartrees.
 NAtoms=   18 NActive=   18 NUniq=   18 SFac= 1.00D+00 NAtFMM=   60 NAOKFM=F Big=F
 Integral buffers will be    131072 words long.
 Raffenetti 1 integral format.
 Two-electron integral symmetry is turned on.
 One-electron integrals computed using PRISM.
 NBasis=   316 RedAO= T EigKep=  3.29D-06  NBF=   316
 NBsUse=   315 1.00D-06 EigRej=  8.41D-07 NBFU=   315
 ExpMin= 1.46D-02 ExpMax= 4.39D+04 ExpMxC= 1.51D+03 IAcc=3 IRadAn=         5 AccDes= 0.00D+00
 Harris functional with IExCor=  205 and IRadAn=       5 diagonalized for initial guess.
 HarFok:  IExCor=  205 AccDes= 0.00D+00 IRadAn=         5 IDoV= 1 UseB2=F ITyADJ=14
 ICtDFT=  3500011 ScaDFX=  1.000000  1.000000  1.000000  1.000000
 FoFCou: FMM=F IPFlag=           0 FMFlag=      100000 FMFlg1=           0
         NFxFlg=           0 DoJE=T BraDBF=F KetDBF=T FulRan=T
         wScrn=  0.000000 ICntrl=       500 IOpCl=  0 I1Cent=   200000004 NGrid=           0
         NMat0=    1 NMatS0=      1 NMatT0=    0 NMatD0=    1 NMtDS0=    0 NMtDT0=    0
 Petite list used in FoFCou.
 Requested convergence on RMS density matrix=1.00D-08 within 128 cycles.
 Requested convergence on MAX density matrix=1.00D-06.
 Requested convergence on             energy=1.00D-06.
 No special actions if energy rises.
 SCF Done:  E(RHF) =  -1.13246769659     A.U. after    7 cycles
            NFock=  7  Conv=0.11D-08     -V/T= 2.0157
 Range of M.O.s used for correlation:     1   315
 NBasis=   316 NAE=     1 NBE=     1 NFC=     0 NFV=     0
 NROrb=    315 NOA=     1 NOB=     1 NVA=   314 NVB=   314

 **** Warning!!: The largest alpha MO coefficient is  0.10615688D+03

 Fully direct method using O(OVN) memory.
 JobTyp=1 Pass  1:  I=   1 to   1 NPSUse= 16 ParTrn=T ParDer=T DoDerP=F.
 Spin components of T(2) and E(2):
     alpha-alpha T2 =       0.0000000000D+00 E2=      0.0000000000D+00
     alpha-beta  T2 =       0.9503595316D-02 E2=     -0.2828075451D-01
     beta-beta   T2 =       0.0000000000D+00 E2=      0.0000000000D+00
 ANorm=    0.1004740561D+01
 E2 =    -0.2828075451D-01 EUMP2 =    -0.11607484510972D+01

 **********************************************************************

            Population analysis using the SCF Density.

 **********************************************************************

 Orbital symmetries:
       Occupied  (A)
       Virtual   (A) (A) (A) (A) (A) (A) (A) (A) (A) (A) (A) (A)
                 (A) (A) (A) (A) (A) (A) (A) (A) (A) (A) (A) (A)
                 (A) (A) (A) (A) (A) (A) (A) (A) (A) (A) (A) (A)
                 (A) (A) (A) (A) (A) (A) (A) (A) (A) (A) (A) (A)
                 (A) (A) (A) (A) (A) (A) (A) (A) (A) (A) (A) (A)
                 (A) (A) (A) (A) (A) (A) (A) (A) (A) (A) (A) (A)
                 (A) (A) (A) (A) (A) (A) (A) (A) (A) (A) (A) (A)
                 (A) (A) (A) (A) (A) (A) (A) (A) (A) (A) (A) (A)
                 (A) (A) (A) (A) (A) (A) (A) (A) (A) (A) (A) (A)
                 (A) (A) (A) (A) (A) (A) (A) (A) (A) (A) (A) (A)
                 (A) (A) (A) (A) (A) (A) (A) (A) (A) (A) (A) (A)
                 (A) (A) (A) (A) (A) (A) (A) (A) (A) (A) (A) (A)
                 (A) (A) (A) (A) (A) (A) (A) (A) (A) (A) (A) (A)
                 (A) (A) (A) (A) (A) (A) (A) (A) (A) (A) (A) (A)
                 (A) (A) (A) (A) (A) (A) (A) (A) (A) (A) (A) (A)
                 (A) (A) (A) (A) (A) (A) (A) (A) (A) (A) (A) (A)
                 (A) (A) (A) (A) (A) (A) (A) (A) (A) (A) (A) (A)
                 (A) (A) (A) (A) (A) (A) (A) (A) (A) (A) (A) (A)
                 (A) (A) (A) (A) (A) (A) (A) (A) (A) (A) (A) (A)
                 (A) (A) (A) (A) (A) (A) (A) (A) (A) (A) (A) (A)
                 (A) (A) (A) (A) (A) (A) (A) (A) (A) (A) (A) (A)
                 (A) (A) (A) (A) (A) (A) (A) (A) (A) (A) (A) (A)
                 (A) (A) (A) (A) (A) (A) (A) (A) (A) (A) (A) (A)
                 (A) (A) (A) (A) (A) (A) (A) (A) (A) (A) (A) (A)
                 (A) (A) (A) (A) (A) (A) (A) (A) (A) (A) (A) (A)
                 (A) (A) (A) (A) (A) (A) (A) (A) (A) (A) (A) (A)
                 (A) (A)
 The electronic state is 1-A.
 Alpha  occ. eigenvalues --   -0.59209
 Alpha virt. eigenvalues --    0.01502   0.02329   0.02686   0.02726   0.03327
 Alpha virt. eigenvalues --    0.03700   0.03721   0.04888   0.07276   0.08296
 Alpha virt. eigenvalues --    0.08841   0.09291   0.10462   0.10503   0.10772
 Alpha virt. eigenvalues --    0.11293   0.11750   0.12512   0.12741   0.12870
 Alpha virt. eigenvalues --    0.13330   0.15113   0.15324   0.16675   0.18094
 Alpha virt. eigenvalues --    0.18368   0.18905   0.19407   0.19836   0.20822
 Alpha virt. eigenvalues --    0.20938   0.22025   0.22909   0.23842   0.24154
 Alpha virt. eigenvalues --    0.24571   0.24964   0.25207   0.25959   0.26328
 Alpha virt. eigenvalues --    0.27190   0.28750   0.29475   0.29517   0.30406
 Alpha virt. eigenvalues --    0.31130   0.31767   0.32082   0.34095   0.34445
 Alpha virt. eigenvalues --    0.34902   0.35936   0.36207   0.36348   0.36362
 Alpha virt. eigenvalues --    0.36465   0.38306   0.40226   0.40736   0.41030
 Alpha virt. eigenvalues --    0.42768   0.44061   0.44620   0.45508   0.46728
 Alpha virt. eigenvalues --    0.46996   0.47439   0.49761   0.49961   0.50534
 Alpha virt. eigenvalues --    0.51539   0.52132   0.53862   0.55151   0.56301
 Alpha virt. eigenvalues --    0.58855   0.59521   0.60698   0.64627   0.65235
 Alpha virt. eigenvalues --    0.66655   0.67477   0.71397   0.71483   0.71891
 Alpha virt. eigenvalues --    0.73114   0.73848   0.74109   0.75109   0.76950
 Alpha virt. eigenvalues --    0.77351   0.77458   0.81391   0.82752   0.84962
 Alpha virt. eigenvalues --    0.85940   0.87945   0.88624   0.90490   0.90884
 Alpha virt. eigenvalues --    0.92479   0.95003   0.96560   0.96758   0.97353
 Alpha virt. eigenvalues --    0.97922   0.99034   0.99226   0.99892   1.00666
 Alpha virt. eigenvalues --    1.02439   1.03630   1.05031   1.10152   1.10545
 Alpha virt. eigenvalues --    1.10977   1.11517   1.15046   1.17548   1.18150
 Alpha virt. eigenvalues --    1.24676   1.26389   1.26666   1.27492   1.28307
 Alpha virt. eigenvalues --    1.29935   1.35182   1.35465   1.40403   1.40830
 Alpha virt. eigenvalues --    1.41912   1.43146   1.44118   1.46198   1.50696
 Alpha virt. eigenvalues --    1.53483   1.53731   1.57882   1.61139   1.62776
 Alpha virt. eigenvalues --    1.70659   1.72233   1.73111   1.73157   1.75486
 Alpha virt. eigenvalues --    1.80369   1.81685   1.82050   1.82564   1.86697
 Alpha virt. eigenvalues --    1.87671   1.90489   1.92398   1.95339   1.98549
 Alpha virt. eigenvalues --    1.99042   2.00413   2.08194   2.10363   2.10749
 Alpha virt. eigenvalues --    2.14594   2.15829   2.15840   2.19796   2.23370
 Alpha virt. eigenvalues --    2.23510   2.28010   2.30935   2.34998   2.38809
 Alpha virt. eigenvalues --    2.39264   2.42555   2.44849   2.45170   2.48479
 Alpha virt. eigenvalues --    2.49495   2.56538   2.58485   2.58897   2.60127
 Alpha virt. eigenvalues --    2.61496   2.68129   2.74022   2.76886   2.83086
 Alpha virt. eigenvalues --    2.83390   2.84537   2.88522   2.89790   2.92599
 Alpha virt. eigenvalues --    2.94094   2.95046   2.96055   2.99803   3.03950
 Alpha virt. eigenvalues --    3.05482   3.09352   3.09499   3.09891   3.13220
 Alpha virt. eigenvalues --    3.14305   3.24992   3.25191   3.26724   3.31929
 Alpha virt. eigenvalues --    3.34067   3.34995   3.36597   3.37242   3.41851
 Alpha virt. eigenvalues --    3.47252   3.48221   3.53941   3.54937   3.56222
 Alpha virt. eigenvalues --    3.65829   3.77365   3.90711   4.04175   4.08018
 Alpha virt. eigenvalues --    4.21339   4.23214   4.23553   4.27878   4.33439
 Alpha virt. eigenvalues --    4.37729   4.41024   4.45046   4.48301   4.60531
 Alpha virt. eigenvalues --    4.61642   4.62798   4.63146   4.80243   4.81662
 Alpha virt. eigenvalues --    4.85917   4.86371   4.87112   4.90633   4.91175
 Alpha virt. eigenvalues --    4.92350   4.95274   4.96515   5.01614   5.02445
 Alpha virt. eigenvalues --    5.04155   5.19814   5.39847   5.59621   5.61186
 Alpha virt. eigenvalues --    5.73873   5.90632   7.01742   7.03305   7.08834
 Alpha virt. eigenvalues --    7.10493   7.15130   7.23448   7.23845   7.37233
 Alpha virt. eigenvalues --    7.73588   7.74913   7.78551   7.83304   7.83499
 Alpha virt. eigenvalues --    7.83690   8.04407   8.06090   8.16368   8.26573
 Alpha virt. eigenvalues --    8.34535   8.96903   9.67329  10.11118  10.17911
 Alpha virt. eigenvalues --   10.18963  10.27098  10.29247  13.47987  13.50155
 Alpha virt. eigenvalues --   13.52721  13.54267  13.65669  13.69335  13.76156
 Alpha virt. eigenvalues --   13.77107  13.96031  14.07244  14.09665  14.11845
 Alpha virt. eigenvalues --   18.52005  18.58204  18.65994  18.69144  24.88816
 Alpha virt. eigenvalues --   24.89230  25.11076  25.12372  25.19636  25.19888
 Alpha virt. eigenvalues --   41.99328  42.05923  69.74132  69.91327  69.95186
 Alpha virt. eigenvalues --   69.95547  70.02851  70.05416 139.78394 139.79342
 Alpha virt. eigenvalues --  139.80819 139.81499 308.90619 309.04210
          Condensed to atoms (all electrons):
               1          2          3          4          5          6
     1  C    0.005698  -0.015770  -0.000442  -0.001138  -0.006335   0.014378
     2  C   -0.015770   0.056124  -0.011171   0.007505   0.024691  -0.052099
     3  C   -0.000442  -0.011171   0.018894  -0.005180  -0.004735   0.008239
     4  C   -0.001138   0.007505  -0.005180   0.003487   0.005413  -0.009405
     5  C   -0.006335   0.024691  -0.004735   0.005413   0.015323  -0.028414
     6  C    0.014378  -0.052099   0.008239  -0.009405  -0.028414   0.056086
     7  O   -0.000298   0.001196  -0.000338   0.000226   0.000665  -0.001345
     8  O    0.000120  -0.000819   0.000521  -0.000457  -0.000750   0.001208
     9  O    0.000590  -0.000256  -0.003150   0.000252  -0.000898   0.001520
    10  O    0.000984  -0.005895   0.002664  -0.000435  -0.001353   0.003178
    11  Mg   0.000304  -0.001713   0.000572  -0.000538  -0.001193   0.002188
    12  Mg   0.001928  -0.002917  -0.005187   0.000103  -0.002749   0.005085
    13  H   -0.000189   0.000564  -0.000044   0.000029   0.000168  -0.000452
    14  H   -0.000034   0.000189  -0.000079   0.000109   0.000194  -0.000287
    15  H   -0.000003  -0.000027   0.000066  -0.000005   0.000003  -0.000004
    16  H    0.000001   0.000013  -0.000036   0.000003  -0.000001   0.000001
    17  H    0.001339   0.008470  -0.009053   0.000380  -0.000294   0.000840
    18  H    0.002851   0.010297  -0.011774   0.000523  -0.000623   0.001965
               7          8          9         10         11         12
     1  C   -0.000298   0.000120   0.000590   0.000984   0.000304   0.001928
     2  C    0.001196  -0.000819  -0.000256  -0.005895  -0.001713  -0.002917
     3  C   -0.000338   0.000521  -0.003150   0.002664   0.000572  -0.005187
     4  C    0.000226  -0.000457   0.000252  -0.000435  -0.000538   0.000103
     5  C    0.000665  -0.000750  -0.000898  -0.001353  -0.001193  -0.002749
     6  C   -0.001345   0.001208   0.001520   0.003178   0.002188   0.005085
     7  O    0.000062  -0.000029  -0.000004  -0.000059  -0.000053  -0.000037
     8  O   -0.000029   0.000087   0.000009   0.000020   0.000054   0.000055
     9  O   -0.000004   0.000009   0.000849  -0.000303   0.000019   0.001344
    10  O   -0.000059   0.000020  -0.000303   0.002675   0.000059  -0.000747
    11  Mg  -0.000053   0.000054   0.000019   0.000059   0.000247   0.000076
    12  Mg  -0.000037   0.000055   0.001344  -0.000747   0.000076   0.003017
    13  H    0.000012  -0.000002  -0.000004  -0.000056  -0.000013  -0.000025
    14  H    0.000002  -0.000017  -0.000020  -0.000006  -0.000009  -0.000055
    15  H    0.000000  -0.000000  -0.000015   0.000012  -0.000000  -0.000021
    16  H   -0.000000   0.000000   0.000010  -0.000003   0.000000   0.000010
    17  H   -0.000000   0.000000   0.000867  -0.009719   0.000013   0.001621
    18  H   -0.000001   0.000000   0.001048  -0.016572   0.000022   0.003999
              13         14         15         16         17         18
     1  C   -0.000189  -0.000034  -0.000003   0.000001   0.001339   0.002851
     2  C    0.000564   0.000189  -0.000027   0.000013   0.008470   0.010297
     3  C   -0.000044  -0.000079   0.000066  -0.000036  -0.009053  -0.011774
     4  C    0.000029   0.000109  -0.000005   0.000003   0.000380   0.000523
     5  C    0.000168   0.000194   0.000003  -0.000001  -0.000294  -0.000623
     6  C   -0.000452  -0.000287  -0.000004   0.000001   0.000840   0.001965
     7  O    0.000012   0.000002   0.000000  -0.000000  -0.000000  -0.000001
     8  O   -0.000002  -0.000017  -0.000000   0.000000   0.000000   0.000000
     9  O   -0.000004  -0.000020  -0.000015   0.000010   0.000867   0.001048
    10  O   -0.000056  -0.000006   0.000012  -0.000003  -0.009719  -0.016572
    11  Mg  -0.000013  -0.000009  -0.000000   0.000000   0.000013   0.000022
    12  Mg  -0.000025  -0.000055  -0.000021   0.000010   0.001621   0.003999
    13  H    0.000010   0.000000   0.000000  -0.000000  -0.000002  -0.000010
    14  H    0.000000   0.000012   0.000000  -0.000000  -0.000000  -0.000000
    15  H    0.000000   0.000000   0.000002  -0.000001  -0.000190  -0.000110
    16  H   -0.000000  -0.000000  -0.000001   0.000002   0.000017   0.000009
    17  H   -0.000002  -0.000000  -0.000190   0.000017   0.570446   0.424564
    18  H   -0.000010  -0.000000  -0.000110   0.000009   0.424564   0.608161
 Mulliken charges:
               1
     1  C   -0.003985
     2  C   -0.018381
     3  C    0.020234
     4  C   -0.000872
     5  C    0.000890
     6  C   -0.002682
     7  O    0.000002
     8  O   -0.000000
     9  O   -0.001859
    10  O    0.025556
    11  Mg  -0.000035
    12  Mg  -0.005500
    13  H    0.000012
    14  H    0.000001
    15  H    0.000294
    16  H   -0.000025
    17  H    0.010701
    18  H   -0.024350
 Sum of Mulliken charges =  -0.00000
 Mulliken charges with hydrogens summed into heavy atoms:
               1
     1  C   -0.003973
     2  C   -0.018381
     3  C    0.020234
     4  C   -0.000871
     5  C    0.000890
     6  C   -0.002682
     7  O    0.000002
     8  O   -0.000000
     9  O   -0.001859
    10  O    0.025556
    11  Mg  -0.000035
    12  Mg  -0.018880
         Mulliken charges condensed to fragments:
      1      0.013380
      2      0.000269
      3     -0.013649
 Electronic spatial extent (au):  <R**2>=            201.7439
 Charge=             -0.0000 electrons
 Dipole moment (field-independent basis, Debye):
    X=              0.0024    Y=              0.0026    Z=             -0.0000  Tot=              0.0036
 Quadrupole moment (field-independent basis, Debye-Ang):
   XX=             -1.6769   YY=             -1.8517   ZZ=             -2.0909
   XY=             -0.2960   XZ=             -0.0003   YZ=              0.0002
 Traceless Quadrupole moment (field-independent basis, Debye-Ang):
   XX=              0.1962   YY=              0.0215   ZZ=             -0.2177
   XY=             -0.2960   XZ=             -0.0003   YZ=              0.0002
 Octapole moment (field-independent basis, Debye-Ang**2):
  XXX=            -25.3672  YYY=             -8.7562  ZZZ=             -0.0100  XYY=            -10.2422
  XXY=             -5.6954  XXZ=             -0.0056  XZZ=            -10.4632  YZZ=             -3.2852
  YYZ=             -0.0024  XYZ=             -0.0001
 Hexadecapole moment (field-independent basis, Debye-Ang**3):
 XXXX=           -257.1878 YYYY=            -30.0197 ZZZZ=             -2.0824 XXXY=            -62.7911
 XXXZ=             -0.0610 YYYX=            -45.9415 YYYZ=             -0.0129 ZZZX=             -0.0497
 ZZZY=             -0.0159 XXYY=            -61.1382 XXZZ=            -53.1414 YYZZ=             -5.9203
 XXYZ=             -0.0092 YYXZ=             -0.0143 ZZXY=            -16.3748
 N-N= 7.071035105454D-01 E-N=-3.609903324928D+00  KE= 1.114946026473D+00
 CPIOFr:  IOpCl= 0 IRwI=-1 IRwCP=  731 ICalc=  3 LCPTot=      154727 Len1MO=      406028 IndFrg=     1778839
 Counterpoise: doing calculation for fragment   1 using the basis set of the fragment.
 Basis read from rwf:  (5D, 7F)
[...]
 Alpha virt. eigenvalues --    3.06855   3.08865   3.08966   3.12748   3.18265
 Alpha virt. eigenvalues --    3.19417   3.26979   3.29270   3.33352   3.36143
 Alpha virt. eigenvalues --    3.36272   3.38568   3.38793   3.44284   3.45355
 Alpha virt. eigenvalues --    3.46081   3.50714   3.51710   3.53381   3.53795
 Alpha virt. eigenvalues --    3.60879   3.63327   3.65496   3.66125   3.66327
 Alpha virt. eigenvalues --    3.67384   3.69134   3.71506   3.83287   3.84982
 Alpha virt. eigenvalues --    3.88963   3.92375   3.93744   3.94070   4.00469
 Alpha virt. eigenvalues --    4.11758   4.18828   4.23318   4.61832   4.63738
 Alpha virt. eigenvalues --    4.68468   4.70647   4.72654   5.31916   5.64649
 Alpha virt. eigenvalues --    5.66803   5.69356   5.70972   5.78881   5.81161
 Alpha virt. eigenvalues --    5.89659   5.91268   6.13119   6.31912   6.35477
 Alpha virt. eigenvalues --    6.36878   6.41203   6.41412   6.64897   6.66807
 Alpha virt. eigenvalues --    6.67707   6.69059  24.79026  25.06559  25.09373
 Alpha virt. eigenvalues --   25.15877  25.30375  25.36227  51.70881  51.73897
 Alpha virt. eigenvalues --   51.78571  51.80238 105.74101 105.84265
          Condensed to atoms (all electrons):
               1          2          3          4          5          6
     1  C   24.037804   4.489850 -11.625003  -2.045719 -11.816384   4.962619
     2  C    4.489850  26.959640 -13.998739 -11.616522  -3.522243   2.743839
     3  C  -11.625003 -13.998739  26.972937   4.501808   2.744271  -3.539211
     4  C   -2.045719 -11.616522   4.501808  24.033788   4.949693 -11.819417
     5  C  -11.816384  -3.522243   2.744271   4.949693  27.769676 -15.068290
     6  C    4.962619   2.743839  -3.539211 -11.819417 -15.068290  27.776478
     7  O   -1.008520  -0.045845   0.109052   0.144476   0.891203  -0.156414
     8  O    0.144537   0.108937  -0.046198  -1.008496  -0.156086   0.891189
     9  O    0.127602   0.807835  -0.067038  -0.990526  -0.050803   0.109596
    10  O   -0.990328  -0.065934   0.807286   0.127442   0.109451  -0.051149
    11  Mg   0.061837  -0.006630  -0.006638   0.061850  -0.151730  -0.150892
    12  Mg   0.059549  -0.153395  -0.152898   0.059204  -0.000643  -0.000604
    13  H    0.340678   0.012163   0.020920  -0.036006   0.022389   0.013584
    14  H   -0.035997   0.020921   0.012173   0.340669   0.013562   0.022408
               7          8          9         10         11         12
     1  C   -1.008520   0.144537   0.127602  -0.990328   0.061837   0.059549
     2  C   -0.045845   0.108937   0.807835  -0.065934  -0.006630  -0.153395
     3  C    0.109052  -0.046198  -0.067038   0.807286  -0.006638  -0.152898
     4  C    0.144476  -1.008496  -0.990526   0.127442   0.061850   0.059204
     5  C    0.891203  -0.156086  -0.050803   0.109451  -0.151730  -0.000643
     6  C   -0.156414   0.891189   0.109596  -0.051149  -0.150892  -0.000604
     7  O    8.391919  -0.009697   0.000071   0.000064   0.192909   0.000846
     8  O   -0.009697   8.392033   0.000064   0.000070   0.193032   0.000845
     9  O    0.000071   0.000064   8.384807  -0.005852   0.000876   0.195834
    10  O    0.000064   0.000070  -0.005852   8.384818   0.000876   0.195943
    11  Mg   0.192909   0.193032   0.000876   0.000876  10.747681  -0.002055
    12  Mg   0.000846   0.000845   0.195834   0.195943  -0.002055  10.728110
    13  H   -0.004206   0.000029   0.000047  -0.004086   0.001744   0.001690
    14  H    0.000029  -0.004195  -0.004100   0.000046   0.001742   0.001691
              13         14
     1  C    0.340678  -0.035997
     2  C    0.012163   0.020921
     3  C    0.020920   0.012173
     4  C   -0.036006   0.340669
     5  C    0.022389   0.013562
     6  C    0.013584   0.022408
     7  O   -0.004206   0.000029
     8  O    0.000029  -0.004195
     9  O    0.000047  -0.004100
    10  O   -0.004086   0.000046
    11  Mg   0.001744   0.001742
    12  Mg   0.001690   0.001691
    13  H    0.507584   0.000020
    14  H    0.000020   0.507587
 Mulliken charges:
               1
     1  C   -0.702524
     2  C    0.266123
     3  C    0.267280
     4  C   -0.702242
     5  C    0.265934
     6  C    0.266264
     7  O   -0.505886
     8  O   -0.506063
     9  O   -0.508412
    10  O   -0.508648
    11  Mg   1.055399
    12  Mg   1.065885
    13  H    0.123447
    14  H    0.123443
    15  H    0.000000
    16  H    0.000000
    17  H    0.000000
    18  H    0.000000
 Sum of Mulliken charges =  -0.00000
 Mulliken charges with hydrogens summed into heavy atoms:
               1
     1  C   -0.579077
     2  C    0.266123
     3  C    0.267280
     4  C   -0.578800
     5  C    0.265934
     6  C    0.266264
     7  O   -0.505886
     8  O   -0.506063
     9  O   -0.508412
    10  O   -0.508648
    11  Mg   1.055399
    12  Mg   1.065885
         Mulliken charges condensed to fragments:
      1     -0.000000
      2      0.000000
      3      0.000000
 Electronic spatial extent (au):  <R**2>=           2436.1626
 Charge=              0.0000 electrons
 Dipole moment (field-independent basis, Debye):
    X=              0.2392    Y=             -0.0015    Z=             -0.0017  Tot=              0.2392
 Quadrupole moment (field-independent basis, Debye-Ang):
   XX=             29.9945   YY=            -96.1439   ZZ=            -72.2609
   XY=             -0.0094   XZ=             -0.0073   YZ=             -0.0008
 Traceless Quadrupole moment (field-independent basis, Debye-Ang):
   XX=             76.1313   YY=            -50.0072   ZZ=            -26.1241
   XY=             -0.0094   XZ=             -0.0073   YZ=             -0.0008
 Octapole moment (field-independent basis, Debye-Ang**2):
  XXX=            -12.8022  YYY=             -0.0077  ZZZ=              0.0146  XYY=             21.3435
  XXY=             -0.0286  XXZ=             -0.0219  XZZ=             15.5474  YZZ=             -0.0035
  YYZ=              0.0057  XYZ=             -0.0029
 Hexadecapole moment (field-independent basis, Debye-Ang**3):
 XXXX=            354.6144 YYYY=           -673.3079 ZZZZ=            -81.7896 XXXY=             -0.1640
 XXXZ=             -0.0755 YYYX=             -0.0564 YYYZ=             -0.0032 ZZZX=             -0.0072
 ZZZY=             -0.0010 XXYY=           -628.3350 XXZZ=           -323.1922 YYZZ=           -128.2656
 XXYZ=             -0.0070 YYXZ=             -0.0059 ZZXY=             -0.0103
 N-N= 7.504916251627D+02 E-N=-3.708265040799D+03  KE= 9.260988205707D+02
 CPIOFr:  IOpCl= 0 IRwI=-1 IRwCP=  731 ICalc=  4 LCPTot=      154727 Len1MO=      406028 IndFrg=     2184867
 Counterpoise: doing calculation for fragment   2 using the basis set of the fragment.
 Basis read from rwf:  (5D, 7F)
 There are    12 symmetry adapted cartesian basis functions of A   symmetry.
 There are    12 symmetry adapted basis functions of A   symmetry.
    12 basis functions,    16 primitive gaussians,    12 cartesian basis functions
     1 alpha electrons        1 beta electrons
       nuclear repulsion energy         0.7071087025 Hartrees.
 NAtoms=   18 NActive=    2 NUniq=    2 SFac= 1.00D+00 NAtFMM=   60 NAOKFM=F Big=F
 Integral buffers will be    131072 words long.
 Raffenetti 1 integral format.
 Two-electron integral symmetry is turned on.
 One-electron integrals computed using PRISM.
 NBasis=    12 RedAO= T EigKep=  1.69D-02  NBF=    12
 NBsUse=    12 1.00D-06 EigRej= -1.00D+00 NBFU=    12
 ExpMin= 1.03D-01 ExpMax= 3.39D+01 ExpMxC= 3.39D+01 IAcc=3 IRadAn=         5 AccDes= 0.00D+00
 Harris functional with IExCor=  205 and IRadAn=       5 diagonalized for initial guess.
 HarFok:  IExCor=  205 AccDes= 0.00D+00 IRadAn=         5 IDoV= 1 UseB2=F ITyADJ=14
 ICtDFT=  3500011 ScaDFX=  1.000000  1.000000  1.000000  1.000000
 FoFCou: FMM=F IPFlag=           0 FMFlag=      100000 FMFlg1=           0
         NFxFlg=           0 DoJE=T BraDBF=F KetDBF=T FulRan=T
         wScrn=  0.000000 ICntrl=       500 IOpCl=  0 I1Cent=   200000004 NGrid=           0
         NMat0=    1 NMatS0=      1 NMatT0=    0 NMatD0=    1 NMtDS0=    0 NMtDT0=    0
 Petite list used in FoFCou.
 Keep R1 ints in memory in canonical form, NReq=3207995.
 Requested convergence on RMS density matrix=1.00D-08 within 128 cycles.
 Requested convergence on MAX density matrix=1.00D-06.
 Requested convergence on             energy=1.00D-06.
 No special actions if energy rises.
 SCF Done:  E(RHF) =  -1.13237470123     A.U. after    6 cycles
            NFock=  6  Conv=0.27D-10     -V/T= 2.0159
 Range of M.O.s used for correlation:     1    12
 NBasis=    12 NAE=     1 NBE=     1 NFC=     0 NFV=     0
 NROrb=     12 NOA=     1 NOB=     1 NVA=    11 NVB=    11
 Fully in-core method, ICMem=     6012708.
 JobTyp=1 Pass  1 fully in-core, NPsUse= 16.
 Spin components of T(2) and E(2):
     alpha-alpha T2 =       0.0000000000D+00 E2=      0.0000000000D+00
     alpha-beta  T2 =       0.9158198753D-02 E2=     -0.2782887000D-01
     beta-beta   T2 =       0.0000000000D+00 E2=      0.0000000000D+00
 ANorm=    0.1004568663D+01
 E2 =    -0.2782887000D-01 EUMP2 =    -0.11602035712329D+01

 **********************************************************************

            Population analysis using the SCF Density.

 **********************************************************************

 Orbital symmetries:
       Occupied  (A)
       Virtual   (A) (A) (A) (A) (A) (A) (A) (A) (A) (A) (A)
 The electronic state is 1-A.
 Alpha  occ. eigenvalues --   -0.59215
 Alpha virt. eigenvalues --    0.16524   0.30746   0.64161   1.33157   1.33157
 Alpha virt. eigenvalues --    1.81363   2.09269   2.09269   2.21903   2.71044
 Alpha virt. eigenvalues --    3.63930
          Condensed to atoms (all electrons):
              15         16
    15  H    0.581967   0.418033
    16  H    0.418033   0.581967
 Mulliken charges:
               1
     1  C    0.000000
     2  C    0.000000
     3  C    0.000000
     4  C    0.000000
     5  C    0.000000
     6  C    0.000000
     7  O    0.000000
     8  O    0.000000
     9  O    0.000000
    10  O    0.000000
    11  Mg   0.000000
    12  Mg   0.000000
    13  H    0.000000
    14  H    0.000000
    15  H   -0.000000
    16  H   -0.000000
    17  H    0.000000
    18  H    0.000000
 Sum of Mulliken charges =  -0.00000
 Mulliken charges with hydrogens summed into heavy atoms:
               1
     1  C    0.000000
     2  C    0.000000
     3  C    0.000000
     4  C    0.000000
     5  C    0.000000
     6  C    0.000000
     7  O    0.000000
     8  O    0.000000
     9  O    0.000000
    10  O    0.000000
    11  Mg   0.000000
    12  Mg  -0.000000
         Mulliken charges condensed to fragments:
      1      0.000000
      2     -0.000000
      3      0.000000
 Electronic spatial extent (au):  <R**2>=            201.7999
 Charge=             -0.0000 electrons
 Dipole moment (field-independent basis, Debye):
    X=             -0.0000    Y=              0.0000    Z=              0.0000  Tot=              0.0000
 Quadrupole moment (field-independent basis, Debye-Ang):
   XX=             -1.7276   YY=             -1.8617   ZZ=             -2.0931
   XY=              0.2908   XZ=             -0.0001   YZ=             -0.0001
 Traceless Quadrupole moment (field-independent basis, Debye-Ang):
   XX=              0.1665   YY=              0.0324   ZZ=             -0.1990
   XY=              0.2908   XZ=             -0.0001   YZ=             -0.0001
 Octapole moment (field-independent basis, Debye-Ang**2):
  XXX=            -25.9419  YYY=              8.7784  ZZZ=             -0.0113  XYY=            -10.2327
  XXY=              5.6266  XXZ=             -0.0046  XZZ=            -10.4768  YZZ=              3.2898
  YYZ=             -0.0030  XYZ=              0.0002
 Hexadecapole moment (field-independent basis, Debye-Ang**3):
 XXXX=           -262.3490 YYYY=            -30.0540 ZZZZ=             -2.0975 XXXY=             62.4250
 XXXZ=             -0.0577 YYYX=             45.8762 YYYZ=              0.0150 ZZZX=             -0.0564
 ZZZY=              0.0178 XXYY=            -60.8977 XXZZ=            -53.2381 YYZZ=             -5.9329
 XXYZ=              0.0095 YYXZ=             -0.0169 ZZXY=             16.3872
 N-N= 7.071087025185D-01 E-N=-3.609339529659D+00  KE= 1.114678937360D+00
 CPIOFr:  IOpCl= 0 IRwI=-1 IRwCP=  731 ICalc=  5 LCPTot=      154727 Len1MO=      406028 IndFrg=     2590895
 Counterpoise: doing calculation for fragment   3 using the basis set of the fragment.
 Basis read from rwf:  (5D, 7F)
 There are    12 symmetry adapted cartesian basis functions of A   symmetry.
 There are    12 symmetry adapted basis functions of A   symmetry.
    12 basis functions,    16 primitive gaussians,    12 cartesian basis functions
     1 alpha electrons        1 beta electrons
       nuclear repulsion energy         0.7071035105 Hartrees.
 NAtoms=   18 NActive=    2 NUniq=    2 SFac= 1.00D+00 NAtFMM=   60 NAOKFM=F Big=F
 Integral buffers will be    131072 words long.
 Raffenetti 1 integral format.
 Two-electron integral symmetry is turned on.
 One-electron integrals computed using PRISM.
 NBasis=    12 RedAO= T EigKep=  1.69D-02  NBF=    12
 NBsUse=    12 1.00D-06 EigRej= -1.00D+00 NBFU=    12
 ExpMin= 1.03D-01 ExpMax= 3.39D+01 ExpMxC= 3.39D+01 IAcc=3 IRadAn=         5 AccDes= 0.00D+00
 Harris functional with IExCor=  205 and IRadAn=       5 diagonalized for initial guess.
 HarFok:  IExCor=  205 AccDes= 0.00D+00 IRadAn=         5 IDoV= 1 UseB2=F ITyADJ=14
 ICtDFT=  3500011 ScaDFX=  1.000000  1.000000  1.000000  1.000000
 FoFCou: FMM=F IPFlag=           0 FMFlag=      100000 FMFlg1=           0
         NFxFlg=           0 DoJE=T BraDBF=F KetDBF=T FulRan=T
         wScrn=  0.000000 ICntrl=       500 IOpCl=  0 I1Cent=   200000004 NGrid=           0
         NMat0=    1 NMatS0=      1 NMatT0=    0 NMatD0=    1 NMtDS0=    0 NMtDT0=    0
 Petite list used in FoFCou.
 Keep R1 ints in memory in canonical form, NReq=3207995.
 Requested convergence on RMS density matrix=1.00D-08 within 128 cycles.
 Requested convergence on MAX density matrix=1.00D-06.
 Requested convergence on             energy=1.00D-06.
 No special actions if energy rises.
 SCF Done:  E(RHF) =  -1.13237460342     A.U. after    6 cycles
            NFock=  6  Conv=0.27D-10     -V/T= 2.0159
 Range of M.O.s used for correlation:     1    12
 NBasis=    12 NAE=     1 NBE=     1 NFC=     0 NFV=     0
 NROrb=     12 NOA=     1 NOB=     1 NVA=    11 NVB=    11
 Fully in-core method, ICMem=     6012708.
 JobTyp=1 Pass  1 fully in-core, NPsUse= 16.
 Spin components of T(2) and E(2):
     alpha-alpha T2 =       0.0000000000D+00 E2=      0.0000000000D+00
     alpha-beta  T2 =       0.9158255341D-02 E2=     -0.2782889317D-01
     beta-beta   T2 =       0.0000000000D+00 E2=      0.0000000000D+00
 ANorm=    0.1004568691D+01
 E2 =    -0.2782889317D-01 EUMP2 =    -0.11602034965880D+01

 **********************************************************************

            Population analysis using the SCF Density.

 **********************************************************************

 Orbital symmetries:
       Occupied  (A)
       Virtual   (A) (A) (A) (A) (A) (A) (A) (A) (A) (A) (A)
 The electronic state is 1-A.
 Alpha  occ. eigenvalues --   -0.59215
 Alpha virt. eigenvalues --    0.16524   0.30746   0.64161   1.33157   1.33157
 Alpha virt. eigenvalues --    1.81363   2.09269   2.09269   2.21904   2.71044
 Alpha virt. eigenvalues --    3.63927
          Condensed to atoms (all electrons):
              17         18
    17  H    0.581968   0.418032
    18  H    0.418032   0.581968
 Mulliken charges:
               1
     1  C    0.000000
     2  C    0.000000
     3  C    0.000000
     4  C    0.000000
     5  C    0.000000
     6  C    0.000000
     7  O    0.000000
     8  O    0.000000
     9  O    0.000000
    10  O    0.000000
    11  Mg   0.000000
    12  Mg   0.000000
    13  H    0.000000
    14  H    0.000000
    15  H    0.000000
    16  H    0.000000
    17  H   -0.000000
    18  H   -0.000000
 Sum of Mulliken charges =  -0.00000
 Mulliken charges with hydrogens summed into heavy atoms:
               1
     1  C    0.000000
     2  C    0.000000
     3  C    0.000000
     4  C    0.000000
     5  C    0.000000
     6  C    0.000000
     7  O    0.000000
     8  O    0.000000
     9  O    0.000000
    10  O    0.000000
    11  Mg   0.000000
    12  Mg  -0.000000
         Mulliken charges condensed to fragments:
      1      0.000000
      2      0.000000
      3     -0.000000
 Electronic spatial extent (au):  <R**2>=            201.7908
 Charge=             -0.0000 electrons
 Dipole moment (field-independent basis, Debye):
    X=             -0.0000    Y=             -0.0000    Z=             -0.0000  Tot=              0.0000
 Quadrupole moment (field-independent basis, Debye-Ang):
   XX=             -1.7277   YY=             -1.8617   ZZ=             -2.0931
   XY=             -0.2908   XZ=             -0.0002   YZ=              0.0002
 Traceless Quadrupole moment (field-independent basis, Debye-Ang):
   XX=              0.1665   YY=              0.0325   ZZ=             -0.1990
   XY=             -0.2908   XZ=             -0.0002   YZ=              0.0002
 Octapole moment (field-independent basis, Debye-Ang**2):
  XXX=            -25.9429  YYY=             -8.7743  ZZZ=             -0.0099  XYY=            -10.2324
  XXY=             -5.6255  XXZ=             -0.0051  XZZ=            -10.4770  YZZ=             -3.2883
  YYZ=             -0.0023  XYZ=              0.0001
 Hexadecapole moment (field-independent basis, Debye-Ang**3):
 XXXX=           -262.3636 YYYY=            -30.0284 ZZZZ=             -2.0975 XXXY=            -62.4093
 XXXZ=             -0.0588 YYYX=            -45.8545 YYYZ=             -0.0126 ZZZX=             -0.0495
 ZZZY=             -0.0158 XXYY=            -60.8915 XXZZ=            -53.2404 YYZZ=             -5.9281
 XXYZ=             -0.0079 YYXZ=             -0.0137 ZZXY=            -16.3801
 N-N= 7.071035105454D-01 E-N=-3.609326778546D+00  KE= 1.114673419849D+00
 CPIOFr:  IOpCl= 0 IRwI=-1 IRwCP=  731 ICalc=  6 LCPTot=      154727 Len1MO=      406028 IndFrg=     2996923
 CPIOFr:  IOpCl= 0 IRwI=-2 IRwCP=  731 ICalc=  0 LCPTot=      154727 Len1MO=      406028 IndFrg=      560755
 Counterpoise corrected energy =    -931.207187693311
                   BSSE energy =       0.002036564756
              sum of fragments =    -931.193481342881
           complexation energy =      -9.88 kcal/mole (raw)
           complexation energy =      -8.60 kcal/mole (corrected)
 Unable to Open any file for archive entry.
 1\1\GINC-GPU26\SP\RMP2-FC\6-311+G(d,p)\C6H6Mg2O4\X2848A03\13-Sep-2024\
 0\\# MP2/6-311+g(d,p) counterpoise=3\\two_3_frag_2\\0,1\C,-1,0.012663,
 1.396773,-0.000233\C,-1,1.237517,0.717029,0.00001\C,-1,1.237526,-0.716
 213,0.000025\C,-1,0.012927,-1.396516,-0.000001\C,-1,-1.211686,-0.71675
 4,-0.00001\C,-1,-1.211697,0.71641,0.000103\O,-1,-2.396395,1.43378,0.\O
 ,-1,-2.396365,-1.434125,0.\O,-1,2.423579,-1.420667,0.000041\O,-1,2.423
 791,1.42117,0.000289\Mg,-1,-3.594341,-0.00015,0.000001\Mg,-1,3.639658,
 0.000004,-0.0002\H,-1,0.011577,2.483752,-0.000032\H,-1,0.012239,-2.483
 487,0.000008\H,0,5.526789,-1.33842,0.001745\H,0,4.941199,-1.804401,0.0
 01984\H,0,5.526738,1.338326,0.001459\H,0,4.941114,1.804273,0.001841\\V
 ersion=ES64L-G16RevC.01\State=1-A\HF=-1.1323746\MP2=-1.1602035\RMSD=2.
 737e-11\PG=C01 [X(C6H6Mg2O4)]\\@
 The archive entry for this job was punched.


 MAN IS A SINGULAR CREATURE.  HE HAS A SET OF GIFTS
 WHICH MAKE HIM UNIQUE AMONG THE ANIMALS: SO THAT, 
 UNLIKE THEM, HE IS NOT A FIGURE IN THE LANDSCAPE --
 HE IS A SHAPER OF THE LANDSCAPE.

                       -- JACOB BRONOWSKI
 Job cpu time:       0 days  0 hours 40 minutes 37.8 seconds.
 Elapsed time:       0 days  0 hours  2 minutes 34.8 seconds.
 File lengths (MBytes):  RWF=     88 Int=      0 D2E=      0 Chk=     29 Scr=      1
 Normal termination of Gaussian 16 at Fri Sep 13 11:41:28 2024.
