 running    1 mpi-ranks, with    1 threads/rank, on    1 nodes
 distrk:  each k-point on    1 cores,    1 groups
 distr:  one band on    1 cores,    1 groups
 OpenACC runtime initialized ...    1 GPUs detected
 vasp.6.4.2 20Jul23 (build Aug  7 2024 10:52:41) complex                         
 POSCAR found type information on POSCAR O B C H Mg
 POSCAR found :  5 types and     636 ions
 LDA part: xc-table for Pade appr. of Perdew
 POSCAR, INCAR and KPOINTS ok, starting setup
 FFT: planning ... GRIDC
 FFT: planning ... GRID_SOFT
 FFT: planning ... GRID
 WAVECAR not read
 WARNING: random wavefunctions but no delay for mixing, default for NELMDL
 entering main loop
       N       E                     dE             d eps       ncg     rms          rms(c)
DAV:   1     0.190402898566E+05    0.19040E+05   -0.84962E+05  3398   0.101E+03
DAV:   2    -0.114543676460E+04   -0.20186E+05   -0.19370E+05  4292   0.278E+02
DAV:   3    -0.491868354518E+04   -0.37732E+04   -0.37335E+04  3588   0.126E+02
DAV:   4    -0.504637356781E+04   -0.12769E+03   -0.12629E+03  3596   0.272E+01
DAV:   5    -0.505057079812E+04   -0.41972E+01   -0.41848E+01  3916   0.427E+00    0.119E+02
DAV:   6    -0.458892766770E+04    0.46164E+03   -0.98434E+02  3460   0.235E+01    0.583E+01
DAV:   7    -0.453388790078E+04    0.55040E+02   -0.14279E+02  3708   0.108E+01    0.356E+01
DAV:   8    -0.453929266850E+04   -0.54048E+01   -0.77402E+01  3948   0.131E+01    0.258E+01
DAV:   9    -0.451448315760E+04    0.24810E+02   -0.31966E+01  3548   0.841E+00    0.166E+01
DAV:  10    -0.451295276673E+04    0.15304E+01   -0.26006E+01  3732   0.581E+00    0.146E+01
DAV:  11    -0.450881337439E+04    0.41394E+01   -0.16936E+01  3724   0.470E+00    0.112E+01
DAV:  12    -0.450689448112E+04    0.19189E+01   -0.51105E+00  3636   0.288E+00    0.885E+00
DAV:  13    -0.450614716258E+04    0.74732E+00   -0.33751E+00  3620   0.200E+00    0.717E+00
DAV:  14    -0.450588397640E+04    0.26319E+00   -0.32680E+00  3676   0.145E+00    0.581E+00
DAV:  15    -0.450552128087E+04    0.36270E+00   -0.18860E+00  3620   0.116E+00    0.464E+00
DAV:  16    -0.450545912212E+04    0.62159E-01   -0.17982E+00  3588   0.891E-01    0.377E+00
DAV:  17    -0.450543334968E+04    0.25772E-01   -0.19293E+00  3572   0.825E-01    0.384E+00
DAV:  18    -0.450524364261E+04    0.18971E+00   -0.12488E+00  3516   0.681E-01    0.292E+00
DAV:  19    -0.450520108605E+04    0.42557E-01   -0.83780E-01  3388   0.450E-01    0.202E+00
DAV:  20    -0.450520391945E+04   -0.28334E-02   -0.39183E-01  3540   0.406E-01    0.200E+00
DAV:  21    -0.450516336671E+04    0.40553E-01   -0.24695E-01  3380   0.338E-01    0.122E+00
DAV:  22    -0.450520168292E+04   -0.38316E-01   -0.17101E-01  3572   0.301E-01    0.170E+00
DAV:  23    -0.450519649545E+04    0.51875E-02   -0.18530E-01  3532   0.284E-01    0.113E+00
DAV:  24    -0.450523490962E+04   -0.38414E-01   -0.10910E-01  3388   0.227E-01    0.113E+00
DAV:  25    -0.450525918844E+04   -0.24279E-01   -0.10221E-01  3524   0.201E-01    0.830E-01
DAV:  26    -0.450529057659E+04   -0.31388E-01   -0.48616E-02  3452   0.163E-01    0.761E-01
DAV:  27    -0.450532329704E+04   -0.32720E-01   -0.54148E-02  3476   0.142E-01    0.666E-01
DAV:  28    -0.450534715959E+04   -0.23863E-01   -0.22351E-02  3540   0.116E-01    0.452E-01
DAV:  29    -0.450537112926E+04   -0.23970E-01   -0.10832E-02  3532   0.837E-02    0.403E-01
DAV:  30    -0.450539291896E+04   -0.21790E-01   -0.95425E-03  3540   0.692E-02    0.234E-01
DAV:  31    -0.450541097789E+04   -0.18059E-01   -0.46414E-03  3548   0.540E-02    0.277E-01
DAV:  32    -0.450542927347E+04   -0.18296E-01   -0.29446E-03  3548   0.442E-02    0.175E-01
DAV:  33    -0.450543918753E+04   -0.99141E-02   -0.19334E-03  3620   0.359E-02    0.151E-01
DAV:  34    -0.450544953879E+04   -0.10351E-01   -0.15328E-03  3484   0.269E-02    0.121E-01
DAV:  35    -0.450545548625E+04   -0.59475E-02   -0.10397E-03  3596   0.217E-02    0.734E-02
DAV:  36    -0.450545957233E+04   -0.40861E-02   -0.72463E-04  3460   0.169E-02    0.924E-02
DAV:  37    -0.450546266736E+04   -0.30950E-02   -0.59028E-04  3180   0.145E-02    0.467E-02
DAV:  38    -0.450546423460E+04   -0.15672E-02   -0.17001E-04  3052   0.998E-03    0.426E-02
DAV:  39    -0.450546622525E+04   -0.19906E-02   -0.18083E-04  2988   0.873E-03    0.291E-02
DAV:  40    -0.450546686308E+04   -0.63784E-03   -0.60279E-05  2532   0.601E-03    0.207E-02
DAV:  41    -0.450546760855E+04   -0.74547E-03   -0.67474E-05  2556   0.499E-03    0.209E-02
DAV:  42    -0.450546787292E+04   -0.26437E-03   -0.26701E-05  2356   0.403E-03    0.129E-02
DAV:  43    -0.450546824289E+04   -0.36997E-03   -0.30917E-05  2388   0.346E-03    0.162E-02
DAV:  44    -0.450546841545E+04   -0.17256E-03   -0.15482E-05  2316   0.271E-03    0.627E-03
DAV:  45    -0.450546856145E+04   -0.14600E-03   -0.14543E-05  2356   0.227E-03    0.998E-03
DAV:  46    -0.450546861800E+04   -0.56553E-04   -0.54162E-06  2292   0.166E-03    0.409E-03
DAV:  47    -0.450546866750E+04   -0.49504E-04   -0.65970E-06  2252   0.152E-03    0.762E-03
DAV:  48    -0.450546868534E+04   -0.17832E-04   -0.25855E-06  2292   0.107E-03    0.321E-03
DAV:  49    -0.450546870477E+04   -0.19432E-04   -0.25901E-06  2204   0.102E-03    0.457E-03
DAV:  50    -0.450546871727E+04   -0.12502E-04   -0.14173E-06  2204   0.777E-04    0.309E-03
DAV:  51    -0.450546872277E+04   -0.55039E-05   -0.11359E-06  2212   0.627E-04
   1 F= -.45449998E+04 E0= -.45443435E+04  d E =-.454500E+04
 curvature:   0.00 expect dE= 0.000E+00 dE for cont linesearch  0.000E+00
 trial: gam= 0.00000 g(F)=  0.331E+02 g(S)=  0.000E+00 ort = 0.000E+00 (trialstep = 0.100E+01)
 search vector abs. value=  0.331E+02
 bond charge predicted
       N       E                     dE             d eps       ncg     rms          rms(c)
DAV:   1    -0.447718191386E+04    0.28287E+02   -0.33630E+03  3110   0.451E+01    0.370E+01
DAV:   2    -0.449539867451E+04   -0.18217E+02   -0.19482E+02  3644   0.950E+00    0.196E+01
DAV:   3    -0.449696898445E+04   -0.15703E+01   -0.20276E+01  3916   0.593E+00    0.176E+01
DAV:   4    -0.449149601012E+04    0.54730E+01   -0.10349E+01  3692   0.410E+00    0.131E+01
DAV:   5    -0.449091424778E+04    0.58176E+00   -0.50353E+00  3804   0.240E+00    0.115E+01
DAV:   6    -0.449120343160E+04   -0.28918E+00   -0.58268E+00  3868   0.219E+00    0.111E+01
DAV:   7    -0.449021774198E+04    0.98569E+00   -0.37788E+00  3796   0.169E+00    0.749E+00
DAV:   8    -0.449018132916E+04    0.36413E-01   -0.35117E+00  4036   0.138E+00    0.585E+00
DAV:   9    -0.449004380376E+04    0.13753E+00   -0.22298E+00  3772   0.111E+00    0.500E+00
DAV:  10    -0.448978979787E+04    0.25401E+00   -0.10342E+00  3452   0.692E-01    0.204E+00
DAV:  11    -0.448985151354E+04   -0.61716E-01   -0.34575E-01  3588   0.442E-01    0.234E+00
DAV:  12    -0.448980872311E+04    0.42790E-01   -0.32179E-01  3396   0.311E-01    0.119E+00
DAV:  13    -0.448982126240E+04   -0.12539E-01   -0.14672E-01  3604   0.228E-01    0.121E+00
DAV:  14    -0.448981934972E+04    0.19127E-02   -0.99201E-02  3580   0.190E-01    0.944E-01
DAV:  15    -0.448981434926E+04    0.50005E-02   -0.47987E-02  3428   0.143E-01    0.500E-01
DAV:  16    -0.448982034860E+04   -0.59993E-02   -0.38419E-02  3732   0.117E-01    0.653E-01
DAV:  17    -0.448981751612E+04    0.28325E-02   -0.29297E-02  3452   0.930E-02    0.353E-01
DAV:  18    -0.448981854774E+04   -0.10316E-02   -0.82932E-03  3524   0.574E-02    0.241E-01
DAV:  19    -0.448981973603E+04   -0.11883E-02   -0.56727E-03  3500   0.452E-02    0.199E-01
DAV:  20    -0.448982056329E+04   -0.82726E-03   -0.24736E-03  3508   0.314E-02    0.139E-01
DAV:  21    -0.448982138968E+04   -0.82639E-03   -0.90132E-04  3572   0.226E-02    0.963E-02
DAV:  22    -0.448982217766E+04   -0.78798E-03   -0.56490E-04  3492   0.172E-02    0.653E-02
DAV:  23    -0.448982317513E+04   -0.99747E-03   -0.34453E-04  3364   0.138E-02    0.668E-02
DAV:  24    -0.448982401110E+04   -0.83598E-03   -0.24839E-04  3180   0.117E-02    0.411E-02
DAV:  25    -0.448982481268E+04   -0.80158E-03   -0.17461E-04  3124   0.974E-03    0.438E-02
DAV:  26    -0.448982559432E+04   -0.78164E-03   -0.18564E-04  3012   0.873E-03    0.396E-02
DAV:  27    -0.448982608186E+04   -0.48754E-03   -0.97831E-05  2844   0.675E-03    0.201E-02
DAV:  28    -0.448982656288E+04   -0.48102E-03   -0.55962E-05  2700   0.503E-03    0.217E-02
DAV:  29    -0.448982690371E+04   -0.34083E-03   -0.36340E-05  2556   0.421E-03    0.134E-02
DAV:  30    -0.448982712918E+04   -0.22548E-03   -0.23384E-05  2412   0.337E-03    0.148E-02
DAV:  31    -0.448982731759E+04   -0.18841E-03   -0.23060E-05  2484   0.286E-03    0.804E-03
DAV:  32    -0.448982739982E+04   -0.82228E-04   -0.77168E-06  2332   0.206E-03    0.848E-03
DAV:  33    -0.448982747203E+04   -0.72211E-04   -0.68831E-06  2324   0.173E-03    0.557E-03
DAV:  34    -0.448982750305E+04   -0.31020E-04   -0.26425E-06  2268   0.127E-03    0.403E-03
DAV:  35    -0.448982753526E+04   -0.32213E-04   -0.27820E-06  2244   0.107E-03    0.413E-03
DAV:  36    -0.448982755156E+04   -0.16293E-04   -0.14330E-06  2252   0.867E-04    0.241E-03
DAV:  37    -0.448982756884E+04   -0.17285E-04   -0.16265E-06  2204   0.804E-04    0.319E-03
DAV:  38    -0.448982757760E+04   -0.87555E-05   -0.95983E-07  2220   0.645E-04
   2 F= -.45294064E+04 E0= -.45287639E+04  d E =0.155933E+02
 trial-energy change:   15.593309  1 .order    9.265990  -33.057465   51.589446
 step:   0.2969(harm=  0.3905)  dis= 0.10226  next Energy= -4549.741661 (dE=-0.474E+01)
 bond charge predicted
       N       E                     dE             d eps       ncg     rms          rms(c)
DAV:   1    -0.450535824044E+04   -0.15531E+02   -0.17409E+03  3070   0.317E+01    0.226E+01
DAV:   2    -0.451415047390E+04   -0.87922E+01   -0.80056E+01  3717   0.673E+00    0.152E+01
DAV:   3    -0.451390677250E+04    0.24370E+00   -0.11730E+01  3884   0.479E+00    0.155E+01
DAV:   4    -0.451080882195E+04    0.30980E+01   -0.95827E+00  3724   0.319E+00    0.109E+01
DAV:   5    -0.451029093314E+04    0.51789E+00   -0.33456E+00  3692   0.192E+00    0.934E+00
DAV:   6    -0.451023105760E+04    0.59876E-01   -0.41506E+00  3764   0.147E+00    0.865E+00
DAV:   7    -0.450997497126E+04    0.25609E+00   -0.24365E+00  3788   0.125E+00    0.721E+00
DAV:   8    -0.450999295749E+04   -0.17986E-01   -0.33891E+00  4124   0.124E+00    0.635E+00
DAV:   9    -0.450994451216E+04    0.48445E-01   -0.22169E+00  3804   0.110E+00    0.597E+00
DAV:  10    -0.450964717647E+04    0.29734E+00   -0.14121E+00  3644   0.845E-01    0.288E+00
DAV:  11    -0.450963273907E+04    0.14437E-01   -0.41622E-01  3532   0.524E-01    0.203E+00
DAV:  12    -0.450965619767E+04   -0.23459E-01   -0.66940E-01  3684   0.438E-01    0.225E+00
DAV:  13    -0.450961113230E+04    0.45065E-01   -0.41054E-01  3460   0.340E-01    0.135E+00
DAV:  14    -0.450960234154E+04    0.87908E-02   -0.97962E-02  3372   0.195E-01    0.576E-01
DAV:  15    -0.450960685341E+04   -0.45119E-02   -0.34966E-02  3516   0.132E-01    0.583E-01
DAV:  16    -0.450960662009E+04    0.23333E-03   -0.25702E-02  3484   0.109E-01    0.533E-01
DAV:  17    -0.450960493229E+04    0.16878E-02   -0.16620E-02  3460   0.801E-02    0.274E-01
DAV:  18    -0.450960638734E+04   -0.14551E-02   -0.68393E-03  3676   0.591E-02    0.280E-01
DAV:  19    -0.450960638324E+04    0.41045E-05   -0.31512E-03  3468   0.474E-02    0.144E-01
DAV:  20    -0.450960725769E+04   -0.87445E-03   -0.15631E-03  3636   0.344E-02    0.161E-01
DAV:  21    -0.450960760640E+04   -0.34872E-03   -0.91209E-04  3572   0.254E-02    0.926E-02
DAV:  22    -0.450960807044E+04   -0.46404E-03   -0.38869E-04  3540   0.161E-02    0.619E-02
DAV:  23    -0.450960869567E+04   -0.62522E-03   -0.22352E-04  3348   0.120E-02    0.438E-02
DAV:  24    -0.450960911018E+04   -0.41452E-03   -0.14968E-04  2868   0.941E-03    0.424E-02
DAV:  25    -0.450960989117E+04   -0.78099E-03   -0.15948E-04  2948   0.927E-03    0.431E-02
DAV:  26    -0.450961022773E+04   -0.33656E-03   -0.93765E-05  2628   0.716E-03    0.210E-02
DAV:  27    -0.450961076970E+04   -0.54196E-03   -0.81595E-05  2844   0.568E-03    0.300E-02
DAV:  28    -0.450961107841E+04   -0.30871E-03   -0.60563E-05  2404   0.461E-03    0.150E-02
DAV:  29    -0.450961129838E+04   -0.21997E-03   -0.26805E-05  2388   0.351E-03    0.165E-02
DAV:  30    -0.450961149854E+04   -0.20016E-03   -0.16637E-05  2332   0.299E-03    0.920E-03
DAV:  31    -0.450961160244E+04   -0.10390E-03   -0.84282E-06  2252   0.219E-03    0.838E-03
DAV:  32    -0.450961172483E+04   -0.12240E-03   -0.11024E-05  2284   0.200E-03    0.758E-03
DAV:  33    -0.450961176527E+04   -0.40438E-04   -0.43531E-06  2252   0.154E-03    0.522E-03
DAV:  34    -0.450961180790E+04   -0.42630E-04   -0.42166E-06  2212   0.127E-03    0.516E-03
DAV:  35    -0.450961182205E+04   -0.14147E-04   -0.17567E-06  2252   0.942E-04    0.254E-03
DAV:  36    -0.450961183737E+04   -0.15317E-04   -0.15208E-06  2172   0.750E-04    0.351E-03
DAV:  37    -0.450961184704E+04   -0.96737E-05   -0.10955E-06  2212   0.661E-04
   3 F= -.45491368E+04 E0= -.45484840E+04  d E =-.413702E+01
 curvature:  -0.19 expect dE=-0.138E+01 dE for cont linesearch -0.239E-01
 ZBRENT: interpolating
 opt :   0.2797  next Energy= -4549.154334 (dE=-0.415E+01)
 bond charge predicted
       N       E                     dE             d eps       ncg     rms          rms(c)
DAV:   1    -0.450963178720E+04   -0.19950E-01   -0.11718E+00  3068   0.862E-01    0.296E-01
DAV:   2    -0.450964125172E+04   -0.94645E-02   -0.45486E-02  3716   0.164E-01    0.867E-01
DAV:   3    -0.450963159701E+04    0.96547E-02   -0.16691E-02  3484   0.104E-01    0.296E-01
DAV:   4    -0.450963431947E+04   -0.27225E-02   -0.12042E-02  3364   0.611E-02    0.367E-01
DAV:   5    -0.450963321535E+04    0.11041E-02   -0.59639E-03  3236   0.511E-02    0.234E-01
DAV:   6    -0.450963313772E+04    0.77627E-04   -0.26268E-03  3484   0.405E-02    0.172E-01
DAV:   7    -0.450963414246E+04   -0.10047E-02   -0.69797E-03  3828   0.453E-02    0.346E-01
DAV:   8    -0.450963265538E+04    0.14871E-02   -0.52626E-03  3460   0.373E-02    0.112E-01
DAV:   9    -0.450963297546E+04   -0.32008E-03   -0.86643E-04  3356   0.187E-02    0.705E-02
DAV:  10    -0.450963301365E+04   -0.38191E-04   -0.53659E-04  3316   0.139E-02    0.733E-02
DAV:  11    -0.450963296190E+04    0.51754E-04   -0.24733E-04  2332   0.970E-03    0.296E-02
DAV:  12    -0.450963297577E+04   -0.13874E-04   -0.10788E-04  2164   0.611E-03    0.294E-02
DAV:  13    -0.450963297234E+04    0.34333E-05   -0.63433E-05  1996   0.491E-03
   4 F= -.45491583E+04 E0= -.45485052E+04  d E =-.415850E+01
 curvature:  -0.14 expect dE=-0.934E+00 dE for cont linesearch -0.833E-03
 trial: gam= 0.21539 g(F)=  0.668E+01 g(S)=  0.000E+00 ort =-0.444E+00 (trialstep = 0.856E+00)
 search vector abs. value=  0.802E+01
 bond charge predicted
       N       E                     dE             d eps       ncg     rms          rms(c)
DAV:   1    -0.450719271005E+04    0.24403E+01   -0.71706E+02  3062   0.220E+01    0.884E+00
DAV:   2    -0.451012665555E+04   -0.29339E+01   -0.23350E+01  3628   0.382E+00    0.902E+00
DAV:   3    -0.450987531228E+04    0.25134E+00   -0.61222E+00  3868   0.260E+00    0.942E+00
DAV:   4    -0.450864652531E+04    0.12288E+01   -0.26961E+00  3828   0.180E+00    0.618E+00
DAV:   5    -0.450847206454E+04    0.17446E+00   -0.22507E+00  3764   0.119E+00    0.492E+00
DAV:   6    -0.450847186280E+04    0.20174E-03   -0.19845E+00  3676   0.910E-01    0.493E+00
DAV:   7    -0.450845725383E+04    0.14609E-01   -0.20341E+00  3948   0.877E-01    0.444E+00
DAV:   8    -0.450837542005E+04    0.81834E-01   -0.11502E+00  3780   0.776E-01    0.364E+00
DAV:   9    -0.450830259128E+04    0.72829E-01   -0.71754E-01  3676   0.576E-01    0.251E+00
DAV:  10    -0.450825975188E+04    0.42839E-01   -0.49020E-01  3412   0.409E-01    0.151E+00
DAV:  11    -0.450826748873E+04   -0.77368E-02   -0.23264E-01  3508   0.281E-01    0.128E+00
DAV:  12    -0.450825775520E+04    0.97335E-02   -0.76032E-02  3348   0.184E-01    0.774E-01
DAV:  13    -0.450825743688E+04    0.31831E-03   -0.43343E-02  3508   0.124E-01    0.575E-01
DAV:  14    -0.450825701381E+04    0.42308E-03   -0.28120E-02  3436   0.906E-02    0.401E-01
DAV:  15    -0.450825692699E+04    0.86814E-04   -0.11183E-02  3444   0.664E-02    0.289E-01
DAV:  16    -0.450825661585E+04    0.31114E-03   -0.51105E-03  3580   0.482E-02    0.172E-01
DAV:  17    -0.450825702716E+04   -0.41130E-03   -0.26326E-03  3516   0.366E-02    0.164E-01
DAV:  18    -0.450825691383E+04    0.11333E-03   -0.98827E-04  3564   0.261E-02    0.718E-02
DAV:  19    -0.450825717834E+04   -0.26451E-03   -0.43025E-04  3548   0.173E-02    0.836E-02
DAV:  20    -0.450825730469E+04   -0.12635E-03   -0.28343E-04  3300   0.131E-02    0.457E-02
DAV:  21    -0.450825739881E+04   -0.94122E-04   -0.90302E-05  2556   0.851E-03    0.287E-02
DAV:  22    -0.450825756391E+04   -0.16510E-03   -0.63761E-05  2396   0.615E-03    0.289E-02
DAV:  23    -0.450825766181E+04   -0.97899E-04   -0.36629E-05  2284   0.480E-03    0.151E-02
DAV:  24    -0.450825779364E+04   -0.13183E-03   -0.30930E-05  2268   0.388E-03    0.185E-02
DAV:  25    -0.450825791529E+04   -0.12165E-03   -0.33092E-05  2260   0.341E-03    0.132E-02
DAV:  26    -0.450825800091E+04   -0.85617E-04   -0.18566E-05  2252   0.278E-03    0.106E-02
DAV:  27    -0.450825810752E+04   -0.10662E-03   -0.13430E-05  2244   0.242E-03    0.860E-03
DAV:  28    -0.450825816197E+04   -0.54446E-04   -0.62032E-06  2268   0.182E-03    0.540E-03
DAV:  29    -0.450825821369E+04   -0.51725E-04   -0.54641E-06  2244   0.156E-03    0.648E-03
DAV:  30    -0.450825823794E+04   -0.24247E-04   -0.27278E-06  2244   0.123E-03    0.363E-03
DAV:  31    -0.450825826117E+04   -0.23227E-04   -0.26030E-06  2196   0.103E-03    0.501E-03
DAV:  32    -0.450825827807E+04   -0.16898E-04   -0.18988E-06  2196   0.847E-04    0.238E-03
DAV:  33    -0.450825828887E+04   -0.10806E-04   -0.12252E-06  2204   0.709E-04    0.263E-03
DAV:  34    -0.450825829796E+04   -0.90910E-05   -0.10497E-06  2172   0.590E-04
   5 F= -.45477672E+04 E0= -.45471159E+04  d E =0.139109E+01
 trial-energy change:    1.391086  1 .order    1.728084   -5.632927    9.089095
 step:   0.3561(harm=  0.3275)  dis= 0.07093  next Energy= -4550.354120 (dE=-0.120E+01)
 bond charge predicted
       N       E                     dE             d eps       ncg     rms          rms(c)
DAV:   1    -0.451049207666E+04   -0.22338E+01   -0.24960E+02  3054   0.130E+01    0.465E+00
DAV:   2    -0.451164265480E+04   -0.11506E+01   -0.80053E+00  3620   0.231E+00    0.653E+00
DAV:   3    -0.451113999798E+04    0.50266E+00   -0.21804E+00  3724   0.145E+00    0.514E+00
DAV:   4    -0.451110337343E+04    0.36625E-01   -0.15481E+00  3708   0.103E+00    0.499E+00
DAV:   5    -0.451085670667E+04    0.24667E+00   -0.11350E+00  3612   0.729E-01    0.277E+00
DAV:   6    -0.451090583496E+04   -0.49128E-01   -0.71128E-01  3748   0.548E-01    0.292E+00
DAV:   7    -0.451093064905E+04   -0.24814E-01   -0.71826E-01  3932   0.584E-01    0.331E+00
DAV:   8    -0.451083147984E+04    0.99169E-01   -0.50530E-01  3724   0.470E-01    0.183E+00
DAV:   9    -0.451083410126E+04   -0.26214E-02   -0.18724E-01  3708   0.297E-01    0.136E+00
DAV:  10    -0.451082871824E+04    0.53830E-02   -0.13889E-01  3532   0.233E-01    0.988E-01
DAV:  11    -0.451082897041E+04   -0.25217E-03   -0.83151E-02  3532   0.181E-01    0.838E-01
DAV:  12    -0.451082338856E+04    0.55819E-02   -0.38484E-02  3580   0.125E-01    0.379E-01
DAV:  13    -0.451082432466E+04   -0.93610E-03   -0.80562E-03  3348   0.741E-02    0.287E-01
DAV:  14    -0.451082455696E+04   -0.23230E-03   -0.70612E-03  3412   0.539E-02    0.278E-01
DAV:  15    -0.451082402318E+04    0.53378E-03   -0.50691E-03  3484   0.386E-02    0.153E-01
DAV:  16    -0.451082427255E+04   -0.24937E-03   -0.31484E-03  3524   0.275E-02    0.149E-01
DAV:  17    -0.451082431422E+04   -0.41674E-04   -0.14640E-03  3444   0.237E-02    0.109E-01
DAV:  18    -0.451082431016E+04    0.40624E-05   -0.52139E-04  3412   0.177E-02    0.517E-02
DAV:  19    -0.451082441296E+04   -0.10280E-03   -0.27112E-04  3100   0.118E-02    0.537E-02
DAV:  20    -0.451082448827E+04   -0.75308E-04   -0.14041E-04  2516   0.841E-03    0.282E-02
DAV:  21    -0.451082452767E+04   -0.39407E-04   -0.56378E-05  2356   0.538E-03    0.173E-02
DAV:  22    -0.451082460619E+04   -0.78520E-04   -0.26806E-05  2212   0.392E-03    0.169E-02
DAV:  23    -0.451082465855E+04   -0.52356E-04   -0.12247E-05  2228   0.294E-03    0.901E-03
DAV:  24    -0.451082470955E+04   -0.50999E-04   -0.10411E-05  2204   0.240E-03    0.112E-02
DAV:  25    -0.451082476416E+04   -0.54617E-04   -0.99677E-06  2220   0.211E-03    0.726E-03
DAV:  26    -0.451082479708E+04   -0.32917E-04   -0.67661E-06  2228   0.174E-03    0.701E-03
DAV:  27    -0.451082483817E+04   -0.41094E-04   -0.61218E-06  2228   0.160E-03    0.540E-03
DAV:  28    -0.451082486014E+04   -0.21966E-04   -0.27586E-06  2196   0.122E-03    0.349E-03
DAV:  29    -0.451082488000E+04   -0.19859E-04   -0.24260E-06  2204   0.997E-04    0.369E-03
DAV:  30    -0.451082489090E+04   -0.10901E-04   -0.14342E-06  2212   0.783E-04    0.242E-03
DAV:  31    -0.451082489778E+04   -0.68763E-05   -0.90428E-07  2156   0.620E-04
   6 F= -.45503443E+04 E0= -.45496922E+04  d E =-.118600E+01
 curvature:  -0.20 expect dE=-0.343E+00 dE for cont linesearch -0.511E-05
 trial: gam= 0.16684 g(F)=  0.172E+01 g(S)=  0.000E+00 ort =-0.143E-01 (trialstep = 0.756E+00)
 search vector abs. value=  0.194E+01
 bond charge predicted
       N       E                     dE             d eps       ncg     rms          rms(c)
DAV:   1    -0.451075101640E+04    0.73874E-01   -0.12352E+02  3038   0.937E+00    0.361E+00
DAV:   2    -0.451185757704E+04   -0.11066E+01   -0.45409E+00  3676   0.199E+00    0.722E+00
DAV:   3    -0.451103585465E+04    0.82172E+00   -0.31469E+00  3700   0.134E+00    0.488E+00
DAV:   4    -0.451089802591E+04    0.13783E+00   -0.14045E+00  3788   0.725E-01    0.268E+00
DAV:   5    -0.451092442324E+04   -0.26397E-01   -0.27713E-01  3436   0.503E-01    0.264E+00
DAV:   6    -0.451087364538E+04    0.50778E-01   -0.45842E-01  3516   0.398E-01    0.167E+00
DAV:   7    -0.451094706581E+04   -0.73420E-01   -0.49928E-01  3820   0.426E-01    0.272E+00
DAV:   8    -0.451087984430E+04    0.67222E-01   -0.64892E-01  3604   0.407E-01    0.181E+00
DAV:   9    -0.451086103670E+04    0.18808E-01   -0.21727E-01  3516   0.266E-01    0.908E-01
DAV:  10    -0.451086696020E+04   -0.59235E-02   -0.83766E-02  3508   0.181E-01    0.813E-01
DAV:  11    -0.451086273272E+04    0.42275E-02   -0.38044E-02  3324   0.132E-01    0.520E-01
DAV:  12    -0.451086238767E+04    0.34505E-03   -0.20397E-02  3404   0.901E-02    0.383E-01
DAV:  13    -0.451086189433E+04    0.49334E-03   -0.13316E-02  3252   0.603E-02    0.273E-01
DAV:  14    -0.451086152008E+04    0.37425E-03   -0.62570E-03  3324   0.443E-02    0.144E-01
DAV:  15    -0.451086179127E+04   -0.27119E-03   -0.16475E-03  3396   0.315E-02    0.157E-01
DAV:  16    -0.451086163107E+04    0.16020E-03   -0.16519E-03  3468   0.239E-02    0.883E-02
DAV:  17    -0.451086169944E+04   -0.68367E-04   -0.61945E-04  3500   0.175E-02    0.709E-02
DAV:  18    -0.451086175263E+04   -0.53188E-04   -0.29960E-04  3252   0.133E-02    0.616E-02
DAV:  19    -0.451086175696E+04   -0.43319E-05   -0.10959E-04  2420   0.907E-03    0.285E-02
DAV:  20    -0.451086179879E+04   -0.41827E-04   -0.40449E-05  2348   0.570E-03    0.219E-02
DAV:  21    -0.451086183905E+04   -0.40264E-04   -0.25912E-05  2220   0.409E-03    0.142E-02
DAV:  22    -0.451086186476E+04   -0.25704E-04   -0.13319E-05  2244   0.289E-03    0.103E-02
DAV:  23    -0.451086190997E+04   -0.45219E-04   -0.96670E-06  2188   0.239E-03    0.108E-02
DAV:  24    -0.451086193579E+04   -0.25815E-04   -0.74493E-06  2188   0.191E-03    0.673E-03
DAV:  25    -0.451086196501E+04   -0.29223E-04   -0.60935E-06  2172   0.158E-03    0.718E-03
DAV:  26    -0.451086199841E+04   -0.33401E-04   -0.56620E-06  2204   0.139E-03    0.451E-03
DAV:  27    -0.451086201770E+04   -0.19287E-04   -0.31546E-06  2204   0.117E-03    0.513E-03
DAV:  28    -0.451086204152E+04   -0.23824E-04   -0.29213E-06  2188   0.108E-03    0.290E-03
DAV:  29    -0.451086205114E+04   -0.96170E-05   -0.14678E-06  2244   0.784E-04
   7 F= -.45503776E+04 E0= -.45497256E+04  d E =-.333444E-01
 trial-energy change:   -0.033344  1 .order   -0.028863   -1.300741    1.243015
 step:   0.3886(harm=  0.3866)  dis= 0.02322  next Energy= -4550.679145 (dE=-0.335E+00)
 bond charge predicted
       N       E                     dE             d eps       ncg     rms          rms(c)
DAV:   1    -0.451113834883E+04   -0.27631E+00   -0.29222E+01  3038   0.456E+00    0.160E+00
DAV:   2    -0.451144380727E+04   -0.30546E+00   -0.13833E+00  3684   0.958E-01    0.466E+00
DAV:   3    -0.451114347595E+04    0.30033E+00   -0.10000E+00  3612   0.628E-01    0.177E+00
DAV:   4    -0.451117739114E+04   -0.33915E-01   -0.28817E-01  3556   0.313E-01    0.155E+00
DAV:   5    -0.451117430611E+04    0.30850E-02   -0.19017E-01  3364   0.251E-01    0.131E+00
DAV:   6    -0.451116016245E+04    0.14144E-01   -0.95684E-02  3468   0.206E-01    0.624E-01
DAV:   7    -0.451118231308E+04   -0.22151E-01   -0.16279E-01  3716   0.197E-01    0.140E+00
DAV:   8    -0.451115797091E+04    0.24342E-01   -0.17106E-01  3444   0.174E-01    0.552E-01
DAV:   9    -0.451116113646E+04   -0.31656E-02   -0.18171E-02  3388   0.954E-02    0.326E-01
DAV:  10    -0.451116230207E+04   -0.11656E-02   -0.14178E-02  3476   0.685E-02    0.391E-01
DAV:  11    -0.451116076261E+04    0.15395E-02   -0.11220E-02  3340   0.526E-02    0.189E-01
DAV:  12    -0.451116102160E+04   -0.25899E-03   -0.38824E-03  3388   0.339E-02    0.148E-01
DAV:  13    -0.451116093160E+04    0.89999E-04   -0.16283E-03  3284   0.239E-02    0.987E-02
DAV:  14    -0.451116089164E+04    0.39961E-04   -0.52741E-04  3380   0.158E-02    0.549E-02
DAV:  15    -0.451116094238E+04   -0.50739E-04   -0.27629E-04  2940   0.124E-02    0.627E-02
DAV:  16    -0.451116091367E+04    0.28710E-04   -0.11770E-04  2436   0.955E-03    0.259E-02
DAV:  17    -0.451116094260E+04   -0.28928E-04   -0.52457E-05  2348   0.666E-03    0.305E-02
DAV:  18    -0.451116094928E+04   -0.66807E-05   -0.56939E-05  2172   0.523E-03
   8 F= -.45506785E+04 E0= -.45500265E+04  d E =-.334292E+00
 curvature:  -0.22 expect dE=-0.154E+00 dE for cont linesearch -0.620E-07
 trial: gam= 0.39867 g(F)=  0.705E+00 g(S)=  0.000E+00 ort = 0.743E-03 (trialstep = 0.682E+00)
 search vector abs. value=  0.101E+01
 bond charge predicted
       N       E                     dE             d eps       ncg     rms          rms(c)
DAV:   1    -0.451126759934E+04   -0.10666E+00   -0.52696E+01  3038   0.629E+00    0.226E+00
DAV:   2    -0.451184594711E+04   -0.57835E+00   -0.20836E+00  3732   0.136E+00    0.577E+00
DAV:   3    -0.451133514757E+04    0.51080E+00   -0.12449E+00  3580   0.889E-01    0.291E+00
DAV:   4    -0.451131302357E+04    0.22124E-01   -0.36975E-01  3540   0.430E-01    0.140E+00
DAV:   5    -0.451135793243E+04   -0.44909E-01   -0.35080E-01  3428   0.330E-01    0.211E+00
DAV:   6    -0.451131086415E+04    0.47068E-01   -0.32896E-01  3356   0.282E-01    0.100E+00
DAV:   7    -0.451133003499E+04   -0.19171E-01   -0.16632E-01  3740   0.239E-01    0.129E+00
DAV:   8    -0.451132157669E+04    0.84583E-02   -0.15043E-01  3404   0.214E-01    0.108E+00
DAV:   9    -0.451131249453E+04    0.90822E-02   -0.59842E-02  3460   0.148E-01    0.451E-01
DAV:  10    -0.451131663312E+04   -0.41386E-02   -0.28379E-02  3372   0.975E-02    0.521E-01
DAV:  11    -0.451131383916E+04    0.27940E-02   -0.21613E-02  3308   0.728E-02    0.254E-01
DAV:  12    -0.451131432264E+04   -0.48348E-03   -0.63650E-03  3452   0.444E-02    0.210E-01
DAV:  13    -0.451131428845E+04    0.34192E-04   -0.37779E-03  3532   0.328E-02    0.176E-01
DAV:  14    -0.451131404797E+04    0.24048E-03   -0.21032E-03  3308   0.242E-02    0.831E-02
DAV:  15    -0.451131415776E+04   -0.10979E-03   -0.62861E-04  3412   0.165E-02    0.811E-02
DAV:  16    -0.451131413424E+04    0.23516E-04   -0.21499E-04  3220   0.125E-02    0.412E-02
DAV:  17    -0.451131416601E+04   -0.31766E-04   -0.12091E-04  2644   0.925E-03    0.349E-02
DAV:  18    -0.451131418912E+04   -0.23113E-04   -0.93426E-05  2388   0.714E-03    0.322E-02
DAV:  19    -0.451131419759E+04   -0.84740E-05   -0.41348E-05  2220   0.507E-03
   9 F= -.45508267E+04 E0= -.45501750E+04  d E =-.148201E+00
 trial-energy change:   -0.148201  1 .order   -0.145727   -0.481229    0.189775
 step:   0.4925(harm=  0.4895)  dis= 0.02729  next Energy= -4550.853109 (dE=-0.175E+00)
 bond charge predicted
       N       E                     dE             d eps       ncg     rms          rms(c)
DAV:   1    -0.451133562265E+04   -0.21434E-01   -0.40918E+00  3038   0.176E+00    0.654E-01
DAV:   2    -0.451139443109E+04   -0.58808E-01   -0.24097E-01  3812   0.392E-01    0.215E+00
DAV:   3    -0.451133104254E+04    0.63389E-01   -0.12129E-01  3540   0.272E-01    0.697E-01
DAV:   4    -0.451133996696E+04   -0.89244E-02   -0.35949E-02  3333   0.120E-01    0.487E-01
DAV:   5    -0.451134112345E+04   -0.11565E-02   -0.21816E-02  3340   0.870E-02    0.496E-01
DAV:   6    -0.451133909804E+04    0.20254E-02   -0.16967E-02  3308   0.728E-02    0.290E-01
DAV:   7    -0.451134076138E+04   -0.16633E-02   -0.12109E-02  3788   0.676E-02    0.404E-01
DAV:   8    -0.451133931647E+04    0.14449E-02   -0.10795E-02  3388   0.622E-02    0.263E-01
DAV:   9    -0.451133909647E+04    0.22000E-03   -0.57064E-03  3388   0.410E-02    0.138E-01
DAV:  10    -0.451133939485E+04   -0.29838E-03   -0.35507E-03  3444   0.295E-02    0.167E-01
DAV:  11    -0.451133906657E+04    0.32829E-03   -0.16598E-03  3284   0.225E-02    0.694E-02
DAV:  12    -0.451133915251E+04   -0.85942E-04   -0.64900E-04  3036   0.132E-02    0.659E-02
DAV:  13    -0.451133912995E+04    0.22560E-04   -0.33939E-04  2668   0.944E-03    0.448E-02
DAV:  14    -0.451133912280E+04    0.71510E-05   -0.13887E-04  2172   0.690E-03    0.293E-02
DAV:  15    -0.451133912407E+04   -0.12697E-05   -0.73826E-05  2116   0.497E-03
  10 F= -.45508531E+04 E0= -.45502012E+04  d E =-.174599E+00
 curvature:  -0.35 expect dE=-0.125E+00 dE for cont linesearch -0.448E-06
 trial: gam= 0.49838 g(F)=  0.356E+00 g(S)=  0.000E+00 ort = 0.114E-02 (trialstep = 0.644E+00)
 search vector abs. value=  0.609E+00
 bond charge predicted
       N       E                     dE             d eps       ncg     rms          rms(c)
DAV:   1    -0.451142703302E+04   -0.87910E-01   -0.26854E+01  3038   0.456E+00    0.138E+00
DAV:   2    -0.451164147705E+04   -0.21444E+00   -0.94954E-01  3572   0.833E-01    0.401E+00
DAV:   3    -0.451144819596E+04    0.19328E+00   -0.68688E-01  3444   0.526E-01    0.160E+00
DAV:   4    -0.451147350886E+04   -0.25313E-01   -0.34944E-01  3556   0.303E-01    0.140E+00
DAV:   5    -0.451146459055E+04    0.89183E-02   -0.16899E-01  3324   0.220E-01    0.106E+00
DAV:   6    -0.451145816236E+04    0.64282E-02   -0.72279E-02  3316   0.163E-01    0.618E-01
DAV:   7    -0.451146654445E+04   -0.83821E-02   -0.57752E-02  3676   0.151E-01    0.922E-01
DAV:   8    -0.451145996725E+04    0.65772E-02   -0.80377E-02  3436   0.141E-01    0.638E-01
DAV:   9    -0.451145821159E+04    0.17557E-02   -0.28332E-02  3524   0.100E-01    0.344E-01
DAV:  10    -0.451145887055E+04   -0.65896E-03   -0.11426E-02  3252   0.667E-02    0.321E-01
DAV:  11    -0.451145787766E+04    0.99288E-03   -0.58240E-03  3340   0.450E-02    0.146E-01
DAV:  12    -0.451145820715E+04   -0.32948E-03   -0.19618E-03  3564   0.299E-02    0.147E-01
DAV:  13    -0.451145809658E+04    0.11057E-03   -0.21003E-03  3356   0.237E-02    0.118E-01
DAV:  14    -0.451145800733E+04    0.89252E-04   -0.86679E-04  3220   0.160E-02    0.557E-02
DAV:  15    -0.451145805094E+04   -0.43612E-04   -0.33385E-04  3028   0.112E-02    0.538E-02
DAV:  16    -0.451145804334E+04    0.75969E-05   -0.17868E-04  2396   0.867E-03    0.321E-02
DAV:  17    -0.451145804916E+04   -0.58128E-05   -0.74526E-05  2340   0.622E-03
  11 F= -.45509676E+04 E0= -.45503157E+04  d E =-.114475E+00
 trial-energy change:   -0.114475  1 .order   -0.114225   -0.229515    0.001064
 step:   0.6415(harm=  0.6415)  dis= 0.03377  next Energy= -4550.967373 (dE=-0.114E+00)
 bond charge predicted
       N       E                     dE             d eps       ncg     rms          rms(c)
DAV:   1    -0.451145804522E+04   -0.18758E-05   -0.58773E-04  3228   0.211E-02    0.226E-02
DAV:   2    -0.451145825819E+04   -0.21298E-03   -0.75482E-04  2940   0.174E-02    0.131E-01
DAV:   3    -0.451145799438E+04    0.26381E-03   -0.56880E-04  2180   0.148E-02    0.184E-02
DAV:   4    -0.451145805469E+04   -0.60303E-04   -0.17211E-05  2100   0.326E-03    0.739E-03
DAV:   5    -0.451145806301E+04   -0.83278E-05   -0.73741E-06  2188   0.203E-03
  12 F= -.45509677E+04 E0= -.45503157E+04  d E =-.114509E+00
 curvature:  -0.55 expect dE=-0.129E+00 dE for cont linesearch -0.145E-06
 trial: gam= 0.65154 g(F)=  0.235E+00 g(S)=  0.000E+00 ort = 0.401E-03 (trialstep = 0.644E+00)
 search vector abs. value=  0.493E+00
 bond charge predicted
       N       E                     dE             d eps       ncg     rms          rms(c)
DAV:   1    -0.451149581580E+04   -0.37761E-01   -0.22156E+01  3038   0.417E+00    0.108E+00
DAV:   2    -0.451162481697E+04   -0.12900E+00   -0.90280E-01  3508   0.697E-01    0.277E+00
DAV:   3    -0.451153019844E+04    0.94619E-01   -0.31912E-01  3380   0.411E-01    0.137E+00
DAV:   4    -0.451154109113E+04   -0.10893E-01   -0.14986E-01  3636   0.247E-01    0.122E+00
DAV:   5    -0.451153164574E+04    0.94454E-02   -0.10343E-01  3324   0.170E-01    0.752E-01
DAV:   6    -0.451153271641E+04   -0.10707E-02   -0.51250E-02  3396   0.138E-01    0.661E-01
DAV:   7    -0.451153728893E+04   -0.45725E-02   -0.89765E-02  3556   0.144E-01    0.862E-01
DAV:   8    -0.451153031570E+04    0.69732E-02   -0.57164E-02  3372   0.123E-01    0.478E-01
DAV:   9    -0.451153053899E+04   -0.22329E-03   -0.17821E-02  3412   0.830E-02    0.290E-01
DAV:  10    -0.451153058417E+04   -0.45178E-04   -0.64703E-03  3268   0.553E-02    0.248E-01
DAV:  11    -0.451153014522E+04    0.43895E-03   -0.43905E-03  3268   0.379E-02    0.145E-01
DAV:  12    -0.451153019719E+04   -0.51972E-04   -0.19384E-03  3380   0.252E-02    0.116E-01
DAV:  13    -0.451153016329E+04    0.33897E-04   -0.56875E-04  3372   0.189E-02    0.868E-02
DAV:  14    -0.451153012263E+04    0.40665E-04   -0.36729E-04  3052   0.138E-02    0.460E-02
DAV:  15    -0.451153015838E+04   -0.35747E-04   -0.19484E-04  2788   0.972E-03    0.480E-02
DAV:  16    -0.451153014940E+04    0.89807E-05   -0.94211E-05  2252   0.717E-03
  13 F= -.45510363E+04 E0= -.45503840E+04  d E =-.686669E-01
 trial-energy change:   -0.068667  1 .order   -0.068520   -0.151199    0.014158
 step:   0.5888(harm=  0.5888)  dis= 0.02746  next Energy= -4551.036781 (dE=-0.691E-01)
 bond charge predicted
       N       E                     dE             d eps       ncg     rms          rms(c)
DAV:   1    -0.451153021857E+04   -0.60196E-04   -0.16202E-01  3038   0.357E-01    0.923E-02
DAV:   2    -0.451153138410E+04   -0.11655E-02   -0.67717E-03  3524   0.621E-02    0.289E-01
DAV:   3    -0.451153031693E+04    0.10672E-02   -0.47130E-03  3260   0.383E-02    0.114E-01
DAV:   4    -0.451153058063E+04   -0.26370E-03   -0.13388E-03  3348   0.206E-02    0.107E-01
DAV:   5    -0.451153051216E+04    0.68473E-04   -0.57934E-04  3340   0.149E-02    0.654E-02
DAV:   6    -0.451153051652E+04   -0.43616E-05   -0.25956E-04  2740   0.114E-02    0.507E-02
DAV:   7    -0.451153057174E+04   -0.55216E-04   -0.44058E-04  2716   0.123E-02    0.733E-02
DAV:   8    -0.451153052678E+04    0.44957E-04   -0.51123E-04  2444   0.110E-02    0.467E-02
DAV:   9    -0.451153052455E+04    0.22256E-05   -0.14793E-04  2244   0.687E-03    0.225E-02
DAV:  10    -0.451153053159E+04   -0.70405E-05   -0.43913E-05  2252   0.430E-03
  14 F= -.45510370E+04 E0= -.45503847E+04  d E =-.693288E-01
 curvature:  -0.62 expect dE=-0.116E+00 dE for cont linesearch -0.111E-06
 trial: gam= 0.79591 g(F)=  0.187E+00 g(S)=  0.000E+00 ort = 0.297E-03 (trialstep = 0.624E+00)
 search vector abs. value=  0.500E+00
 bond charge predicted
       N       E                     dE             d eps       ncg     rms          rms(c)
DAV:   1    -0.451155230931E+04   -0.21785E-01   -0.22631E+01  3038   0.422E+00    0.114E+00
DAV:   2    -0.451170347049E+04   -0.15116E+00   -0.76052E-01  3484   0.729E-01    0.331E+00
DAV:   3    -0.451157901894E+04    0.12445E+00   -0.55509E-01  3428   0.432E-01    0.144E+00
DAV:   4    -0.451159388979E+04   -0.14871E-01   -0.18759E-01  3452   0.245E-01    0.111E+00
DAV:   5    -0.451158899484E+04    0.48950E-02   -0.78975E-02  3228   0.169E-01    0.775E-01
DAV:   6    -0.451158821816E+04    0.77668E-03   -0.44597E-02  3420   0.137E-01    0.637E-01
DAV:   7    -0.451159366009E+04   -0.54419E-02   -0.65392E-02  3844   0.139E-01    0.883E-01
DAV:   8    -0.451158728496E+04    0.63751E-02   -0.59135E-02  3476   0.125E-01    0.512E-01
DAV:   9    -0.451158679259E+04    0.49237E-03   -0.21639E-02  3380   0.889E-02    0.329E-01
DAV:  10    -0.451158669767E+04    0.94923E-04   -0.98568E-03  3324   0.543E-02    0.217E-01
DAV:  11    -0.451158644740E+04    0.25027E-03   -0.35877E-03  3324   0.377E-02    0.131E-01
DAV:  12    -0.451158646155E+04   -0.14155E-04   -0.17454E-03  3308   0.238E-02    0.105E-01
DAV:  13    -0.451158647273E+04   -0.11180E-04   -0.13356E-03  3340   0.185E-02    0.998E-02
DAV:  14    -0.451158638907E+04    0.83661E-04   -0.62094E-04  2948   0.141E-02    0.430E-02
DAV:  15    -0.451158642915E+04   -0.40079E-04   -0.24554E-04  2724   0.955E-03    0.447E-02
DAV:  16    -0.451158642514E+04    0.40117E-05   -0.10261E-04  2292   0.693E-03    0.202E-02
DAV:  17    -0.451158644120E+04   -0.16058E-04   -0.41425E-05  2260   0.523E-03    0.230E-02
DAV:  18    -0.451158645137E+04   -0.10175E-04   -0.23789E-05  2220   0.422E-03    0.149E-02
DAV:  19    -0.451158645707E+04   -0.57004E-05   -0.88765E-06  2212   0.298E-03
  15 F= -.45510906E+04 E0= -.45504381E+04  d E =-.536053E-01
 trial-energy change:   -0.053605  1 .order   -0.053713   -0.117073    0.009647
 step:   0.5765(harm=  0.5765)  dis= 0.02264  next Energy= -4551.091063 (dE=-0.541E-01)
 bond charge predicted
       N       E                     dE             d eps       ncg     rms          rms(c)
DAV:   1    -0.451158646354E+04   -0.12164E-04   -0.13116E-01  3038   0.322E-01    0.886E-02
DAV:   2    -0.451158745703E+04   -0.99349E-03   -0.46313E-03  3484   0.568E-02    0.275E-01
DAV:   3    -0.451158652935E+04    0.92768E-03   -0.30695E-03  3260   0.349E-02    0.110E-01
DAV:   4    -0.451158672762E+04   -0.19827E-03   -0.12604E-03  3276   0.190E-02    0.880E-02
DAV:   5    -0.451158669944E+04    0.28179E-04   -0.44537E-04  3148   0.133E-02    0.611E-02
DAV:   6    -0.451158669369E+04    0.57488E-05   -0.24718E-04  2556   0.106E-02    0.483E-02
DAV:   7    -0.451158672849E+04   -0.34803E-04   -0.23108E-04  2412   0.104E-02    0.668E-02
DAV:   8    -0.451158670027E+04    0.28224E-04   -0.18463E-04  2372   0.958E-03    0.396E-02
DAV:   9    -0.451158669753E+04    0.27411E-05   -0.10335E-04  2220   0.687E-03    0.240E-02
DAV:  10    -0.451158669909E+04   -0.15573E-05   -0.49968E-05  2172   0.422E-03
  16 F= -.45510910E+04 E0= -.45504386E+04  d E =-.540180E-01
 curvature:  -0.77 expect dE=-0.114E+00 dE for cont linesearch -0.127E-06
 trial: gam= 0.78935 g(F)=  0.149E+00 g(S)=  0.000E+00 ort =-0.287E-03 (trialstep = 0.614E+00)
 search vector abs. value=  0.460E+00
 bond charge predicted
       N       E                     dE             d eps       ncg     rms          rms(c)
DAV:   1    -0.451159649000E+04   -0.97925E-02   -0.21445E+01  3038   0.412E+00    0.970E-01
DAV:   2    -0.451168031536E+04   -0.83825E-01   -0.57407E-01  3396   0.631E-01    0.206E+00
DAV:   3    -0.451163209809E+04    0.48217E-01   -0.19194E-01  3340   0.328E-01    0.110E+00
DAV:   4    -0.451164383074E+04   -0.11733E-01   -0.17204E-01  3484   0.205E-01    0.120E+00
DAV:   5    -0.451163149420E+04    0.12337E-01   -0.76438E-02  3340   0.153E-01    0.627E-01
DAV:   6    -0.451163571790E+04   -0.42237E-02   -0.56088E-02  3524   0.129E-01    0.679E-01
DAV:   7    -0.451163766456E+04   -0.19467E-02   -0.54684E-02  3588   0.134E-01    0.772E-01
DAV:   8    -0.451163254061E+04    0.51239E-02   -0.29280E-02  3396   0.113E-01    0.407E-01
DAV:   9    -0.451163262149E+04   -0.80885E-04   -0.12262E-02  3420   0.701E-02    0.252E-01
DAV:  10    -0.451163264237E+04   -0.20873E-04   -0.52920E-03  3212   0.446E-02    0.185E-01
DAV:  11    -0.451163245443E+04    0.18793E-03   -0.15662E-03  3356   0.312E-02    0.118E-01
DAV:  12    -0.451163243808E+04    0.16351E-04   -0.84949E-04  3340   0.205E-02    0.937E-02
DAV:  13    -0.451163244565E+04   -0.75700E-05   -0.81838E-04  3196   0.159E-02    0.868E-02
DAV:  14    -0.451163238482E+04    0.60836E-04   -0.38050E-04  2852   0.122E-02    0.382E-02
DAV:  15    -0.451163242435E+04   -0.39538E-04   -0.14207E-04  2404   0.884E-03    0.469E-02
DAV:  16    -0.451163240759E+04    0.16767E-04   -0.87348E-05  2156   0.673E-03    0.184E-02
DAV:  17    -0.451163242313E+04   -0.15538E-04   -0.49368E-05  2212   0.494E-03    0.240E-02
DAV:  18    -0.451163242715E+04   -0.40261E-05   -0.30895E-05  2148   0.386E-03
  17 F= -.45511379E+04 E0= -.45504853E+04  d E =-.468987E-01
 trial-energy change:   -0.046899  1 .order   -0.046960   -0.091352   -0.002568
 step:   0.6323(harm=  0.6323)  dis= 0.01692  next Energy= -4551.137998 (dE=-0.470E-01)
 bond charge predicted
       N       E                     dE             d eps       ncg     rms          rms(c)
DAV:   1    -0.451163240561E+04    0.17520E-04   -0.17994E-02  3052   0.119E-01    0.290E-02
DAV:   2    -0.451163249416E+04   -0.88558E-04   -0.53835E-04  3444   0.190E-02    0.707E-02
DAV:   3    -0.451163243478E+04    0.59388E-04   -0.23479E-04  2604   0.102E-02    0.310E-02
DAV:   4    -0.451163245627E+04   -0.21495E-04   -0.12411E-04  2108   0.609E-03    0.365E-02
DAV:   5    -0.451163244597E+04    0.10299E-04   -0.71147E-05  2116   0.475E-03    0.189E-02
DAV:   6    -0.451163245166E+04   -0.56931E-05   -0.31290E-05  2060   0.376E-03
  18 F= -.45511380E+04 E0= -.45504854E+04  d E =-.469593E-01
 curvature:  -0.98 expect dE=-0.111E+00 dE for cont linesearch -0.895E-06
 trial: gam= 0.75735 g(F)=  0.113E+00 g(S)=  0.000E+00 ort = 0.649E-03 (trialstep = 0.618E+00)
 search vector abs. value=  0.378E+00
 bond charge predicted
       N       E                     dE             d eps       ncg     rms          rms(c)
DAV:   1    -0.451163715753E+04   -0.47116E-02   -0.17945E+01  3038   0.377E+00    0.902E-01
DAV:   2    -0.451172584394E+04   -0.88686E-01   -0.61289E-01  3452   0.608E-01    0.212E+00
DAV:   3    -0.451167202940E+04    0.53815E-01   -0.34474E-01  3356   0.349E-01    0.123E+00
DAV:   4    -0.451167353639E+04   -0.15070E-02   -0.10172E-01  3708   0.202E-01    0.967E-01
DAV:   5    -0.451167029117E+04    0.32452E-02   -0.74961E-02  3388   0.146E-01    0.691E-01
DAV:   6    -0.451166858445E+04    0.17067E-02   -0.40501E-02  3396   0.114E-01    0.471E-01
DAV:   7    -0.451167514021E+04   -0.65558E-02   -0.54756E-02  3644   0.119E-01    0.833E-01
DAV:   8    -0.451166677958E+04    0.83606E-02   -0.39222E-02  3500   0.102E-01    0.296E-01
DAV:   9    -0.451166846046E+04   -0.16809E-02   -0.11392E-02  3268   0.547E-02    0.207E-01
DAV:  10    -0.451166840361E+04    0.56850E-04   -0.33812E-03  3156   0.362E-02    0.155E-01
DAV:  11    -0.451166825363E+04    0.14998E-03   -0.14499E-03  3220   0.241E-02    0.873E-02
DAV:  12    -0.451166829745E+04   -0.43816E-04   -0.89507E-04  3364   0.177E-02    0.817E-02
DAV:  13    -0.451166826543E+04    0.32015E-04   -0.46164E-04  3132   0.142E-02    0.656E-02
DAV:  14    -0.451166825557E+04    0.98596E-05   -0.22958E-04  2564   0.109E-02    0.468E-02
DAV:  15    -0.451166825806E+04   -0.24888E-05   -0.11145E-04  2236   0.837E-03    0.341E-02
DAV:  16    -0.451166825818E+04   -0.11249E-06   -0.45542E-05  2196   0.580E-03
  19 F= -.45511751E+04 E0= -.45505226E+04  d E =-.370897E-01
 trial-energy change:   -0.037090  1 .order   -0.037081   -0.070302   -0.003861
 step:   0.6540(harm=  0.6540)  dis= 0.01512  next Energy= -4551.175154 (dE=-0.372E-01)
 bond charge predicted
       N       E                     dE             d eps       ncg     rms          rms(c)
DAV:   1    -0.451166821544E+04    0.42620E-04   -0.60920E-02  3038   0.220E-01    0.567E-02
DAV:   2    -0.451166865732E+04   -0.44188E-03   -0.24347E-03  3452   0.386E-02    0.166E-01
DAV:   3    -0.451166828212E+04    0.37520E-03   -0.14742E-03  3252   0.237E-02    0.674E-02
DAV:   4    -0.451166835599E+04   -0.73874E-04   -0.31617E-04  2772   0.125E-02    0.647E-02
DAV:   5    -0.451166834026E+04    0.15739E-04   -0.28032E-04  2396   0.924E-03    0.457E-02
DAV:   6    -0.451166833290E+04    0.73530E-05   -0.17202E-04  2164   0.688E-03    0.262E-02
DAV:   7    -0.451166836075E+04   -0.27845E-04   -0.11370E-04  2284   0.699E-03    0.454E-02
DAV:   8    -0.451166834328E+04    0.17465E-04   -0.11021E-04  2204   0.632E-03    0.236E-02
DAV:   9    -0.451166834744E+04   -0.41561E-05   -0.51890E-05  2116   0.403E-03
  20 F= -.45511752E+04 E0= -.45505226E+04  d E =-.372556E-01
 curvature:  -1.09 expect dE=-0.121E+00 dE for cont linesearch -0.175E-05
 trial: gam= 0.97320 g(F)=  0.111E+00 g(S)=  0.000E+00 ort = 0.781E-03 (trialstep = 0.502E+00)
 search vector abs. value=  0.471E+00
 bond charge predicted
       N       E                     dE             d eps       ncg     rms          rms(c)
DAV:   1    -0.451168039090E+04   -0.12048E-01   -0.14258E+01  3038   0.336E+00    0.743E-01
DAV:   2    -0.451173511474E+04   -0.54724E-01   -0.41790E-01  3348   0.498E-01    0.169E+00
DAV:   3    -0.451170679813E+04    0.28317E-01   -0.19429E-01  3380   0.252E-01    0.975E-01
DAV:   4    -0.451171287939E+04   -0.60813E-02   -0.89033E-02  3628   0.172E-01    0.937E-01
DAV:   5    -0.451170433706E+04    0.85423E-02   -0.37019E-02  3308   0.123E-01    0.417E-01
DAV:   6    -0.451170870385E+04   -0.43668E-02   -0.32497E-02  3540   0.992E-02    0.584E-01
DAV:   7    -0.451170992977E+04   -0.12259E-02   -0.47249E-02  3492   0.110E-01    0.677E-01
DAV:   8    -0.451170503199E+04    0.48978E-02   -0.27425E-02  3380   0.910E-02    0.223E-01
DAV:   9    -0.451170623189E+04   -0.11999E-02   -0.59742E-03  3252   0.490E-02    0.199E-01
DAV:  10    -0.451170599506E+04    0.23682E-03   -0.30103E-03  3316   0.311E-02    0.132E-01
DAV:  11    -0.451170590649E+04    0.88578E-04   -0.12755E-03  3332   0.204E-02    0.770E-02
DAV:  12    -0.451170593091E+04   -0.24419E-04   -0.26414E-04  3268   0.141E-02    0.672E-02
DAV:  13    -0.451170590540E+04    0.25507E-04   -0.18883E-04  3004   0.112E-02    0.421E-02
DAV:  14    -0.451170591691E+04   -0.11511E-04   -0.14497E-04  2492   0.849E-03    0.368E-02
DAV:  15    -0.451170592231E+04   -0.54018E-05   -0.96960E-05  2228   0.664E-03
  21 F= -.45512130E+04 E0= -.45505605E+04  d E =-.378162E-01
 trial-energy change:   -0.037816  1 .order   -0.037730   -0.056098   -0.019363
 step:   0.7673(harm=  0.7673)  dis= 0.02042  next Energy= -4551.218050 (dE=-0.428E-01)
 bond charge predicted
       N       E                     dE             d eps       ncg     rms          rms(c)
DAV:   1    -0.451170393090E+04    0.19860E-02   -0.39648E+00  3038   0.177E+00    0.393E-01
DAV:   2    -0.451171951158E+04   -0.15581E-01   -0.11576E-01  3356   0.264E-01    0.909E-01
DAV:   3    -0.451171087222E+04    0.86394E-02   -0.42607E-02  3364   0.135E-01    0.511E-01
DAV:   4    -0.451171305226E+04   -0.21800E-02   -0.25277E-02  3572   0.907E-02    0.504E-01
DAV:   5    -0.451171054481E+04    0.25074E-02   -0.90342E-03  3332   0.660E-02    0.219E-01
DAV:   6    -0.451171177330E+04   -0.12285E-02   -0.73643E-03  3492   0.523E-02    0.302E-01
DAV:   7    -0.451171214789E+04   -0.37460E-03   -0.12540E-02  3476   0.577E-02    0.360E-01
DAV:   8    -0.451171075615E+04    0.13917E-02   -0.81465E-03  3380   0.471E-02    0.112E-01
DAV:   9    -0.451171112729E+04   -0.37114E-03   -0.14592E-03  3196   0.251E-02    0.103E-01
DAV:  10    -0.451171105354E+04    0.73751E-04   -0.63619E-04  3228   0.156E-02    0.603E-02
DAV:  11    -0.451171105309E+04    0.45320E-06   -0.28014E-04  2652   0.105E-02    0.457E-02
DAV:  12    -0.451171105307E+04    0.16764E-07   -0.89881E-05  2316   0.775E-03
  22 F= -.45512183E+04 E0= -.45505659E+04  d E =-.430968E-01
 curvature:  -1.62 expect dE=-0.222E+00 dE for cont linesearch -0.263E-08
 trial: gam= 1.23876 g(F)=  0.137E+00 g(S)=  0.000E+00 ort = 0.277E-04 (trialstep = 0.304E+00)
 search vector abs. value=  0.859E+00
 bond charge predicted
       N       E                     dE             d eps       ncg     rms          rms(c)
DAV:   1    -0.451172506373E+04   -0.14011E-01   -0.95140E+00  3038   0.273E+00    0.611E-01
DAV:   2    -0.451175878361E+04   -0.33720E-01   -0.27516E-01  3348   0.399E-01    0.127E+00
DAV:   3    -0.451174369221E+04    0.15091E-01   -0.10667E-01  3404   0.195E-01    0.802E-01
DAV:   4    -0.451174656228E+04   -0.28701E-02   -0.82410E-02  3524   0.136E-01    0.751E-01
DAV:   5    -0.451174134613E+04    0.52161E-02   -0.23875E-02  3332   0.968E-02    0.348E-01
DAV:   6    -0.451174456722E+04   -0.32211E-02   -0.15155E-02  3604   0.814E-02    0.513E-01
DAV:   7    -0.451174481622E+04   -0.24900E-03   -0.30500E-02  3580   0.909E-02    0.550E-01
DAV:   8    -0.451174180598E+04    0.30102E-02   -0.14425E-02  3412   0.731E-02    0.211E-01
DAV:   9    -0.451174247670E+04   -0.67072E-03   -0.35903E-03  3220   0.401E-02    0.136E-01
DAV:  10    -0.451174241864E+04    0.58059E-04   -0.16494E-03  3196   0.248E-02    0.960E-02
DAV:  11    -0.451174239484E+04    0.23798E-04   -0.51205E-04  3308   0.160E-02    0.662E-02
DAV:  12    -0.451174239091E+04    0.39330E-05   -0.37799E-04  2948   0.122E-02    0.528E-02
DAV:  13    -0.451174238361E+04    0.73009E-05   -0.23263E-04  2372   0.946E-03    0.401E-02
DAV:  14    -0.451174238468E+04   -0.10743E-05   -0.16120E-04  2228   0.712E-03    0.311E-02
DAV:  15    -0.451174239181E+04   -0.71317E-05   -0.63417E-05  2188   0.559E-03
  23 F= -.45512502E+04 E0= -.45505980E+04  d E =-.318482E-01
 trial-energy change:   -0.031848  1 .order   -0.031713   -0.041728   -0.021697
 step:   0.6089(harm=  0.6336)  dis= 0.02232  next Energy= -4551.261164 (dE=-0.429E-01)
 bond charge predicted
       N       E                     dE             d eps       ncg     rms          rms(c)
DAV:   1    -0.451173661493E+04    0.57698E-02   -0.95439E+00  3038   0.274E+00    0.613E-01
DAV:   2    -0.451177213873E+04   -0.35524E-01   -0.28408E-01  3332   0.403E-01    0.134E+00
DAV:   3    -0.451175429619E+04    0.17843E-01   -0.11209E-01  3348   0.199E-01    0.783E-01
DAV:   4    -0.451175793449E+04   -0.36383E-02   -0.79566E-02  3532   0.132E-01    0.742E-01
DAV:   5    -0.451175274253E+04    0.51920E-02   -0.25329E-02  3340   0.949E-02    0.334E-01
DAV:   6    -0.451175615149E+04   -0.34090E-02   -0.13727E-02  3580   0.808E-02    0.518E-01
DAV:   7    -0.451175614719E+04    0.43011E-05   -0.25374E-02  3532   0.911E-02    0.533E-01
DAV:   8    -0.451175337542E+04    0.27718E-02   -0.15070E-02  3380   0.725E-02    0.221E-01
DAV:   9    -0.451175397036E+04   -0.59494E-03   -0.44938E-03  3244   0.410E-02    0.153E-01
DAV:  10    -0.451175385159E+04    0.11877E-03   -0.17963E-03  3188   0.253E-02    0.923E-02
DAV:  11    -0.451175385225E+04   -0.65676E-06   -0.46246E-04  3324   0.160E-02    0.658E-02
DAV:  12    -0.451175384567E+04    0.65835E-05   -0.37815E-04  3004   0.123E-02    0.525E-02
DAV:  13    -0.451175383975E+04    0.59126E-05   -0.22290E-04  2372   0.944E-03    0.403E-02
DAV:  14    -0.451175384071E+04   -0.95624E-06   -0.15804E-04  2212   0.715E-03    0.311E-02
DAV:  15    -0.451175384845E+04   -0.77459E-05   -0.60581E-05  2180   0.556E-03
  24 F= -.45512622E+04 E0= -.45506101E+04  d E =-.438558E-01
 curvature:  -1.97 expect dE=-0.189E+00 dE for cont linesearch -0.886E-04
 trial: gam= 0.65203 g(F)=  0.959E-01 g(S)=  0.000E+00 ort = 0.621E-02 (trialstep = 0.365E+00)
 search vector abs. value=  0.469E+00
 bond charge predicted
       N       E                     dE             d eps       ncg     rms          rms(c)
DAV:   1    -0.451176669233E+04   -0.12852E-01   -0.76132E+00  3046   0.245E+00    0.600E-01
DAV:   2    -0.451181411791E+04   -0.47426E-01   -0.28835E-01  3420   0.414E-01    0.174E+00
DAV:   3    -0.451177603985E+04    0.38078E-01   -0.17724E-01  3308   0.244E-01    0.769E-01
DAV:   4    -0.451178220756E+04   -0.61677E-02   -0.41871E-02  3500   0.134E-01    0.644E-01
DAV:   5    -0.451178031848E+04    0.18891E-02   -0.26007E-02  3212   0.966E-02    0.445E-01
DAV:   6    -0.451177961341E+04    0.70507E-03   -0.17011E-02  3300   0.737E-02    0.299E-01
DAV:   7    -0.451178225620E+04   -0.26428E-02   -0.14712E-02  3652   0.766E-02    0.511E-01
DAV:   8    -0.451177907408E+04    0.31821E-02   -0.10105E-02  3476   0.673E-02    0.179E-01
DAV:   9    -0.451177962403E+04   -0.54996E-03   -0.29204E-03  3252   0.344E-02    0.114E-01
DAV:  10    -0.451177974470E+04   -0.12067E-03   -0.19596E-03  3404   0.238E-02    0.128E-01
DAV:  11    -0.451177958774E+04    0.15696E-03   -0.11140E-03  3156   0.176E-02    0.693E-02
DAV:  12    -0.451177959146E+04   -0.37193E-05   -0.22009E-04  2412   0.105E-02    0.358E-02
DAV:  13    -0.451177961121E+04   -0.19750E-04   -0.10507E-04  2604   0.809E-03    0.400E-02
DAV:  14    -0.451177960453E+04    0.66741E-05   -0.68033E-05  2196   0.649E-03
  25 F= -.45512883E+04 E0= -.45506362E+04  d E =-.261654E-01
 trial-energy change:   -0.026165  1 .order   -0.025971   -0.036479   -0.015463
 step:   0.6109(harm=  0.6337)  dis= 0.01664  next Energy= -4551.293598 (dE=-0.314E-01)
 bond charge predicted
       N       E                     dE             d eps       ncg     rms          rms(c)
DAV:   1    -0.451177929377E+04    0.31744E-03   -0.34513E+00  3046   0.165E+00    0.406E-01
DAV:   2    -0.451180119046E+04   -0.21897E-01   -0.13524E-01  3404   0.280E-01    0.119E+00
DAV:   3    -0.451178314643E+04    0.18044E-01   -0.79931E-02  3308   0.167E-01    0.513E-01
DAV:   4    -0.451178641507E+04   -0.32686E-02   -0.18895E-02  3460   0.903E-02    0.442E-01
DAV:   5    -0.451178546886E+04    0.94621E-03   -0.11285E-02  3196   0.658E-02    0.300E-01
DAV:   6    -0.451178517755E+04    0.29131E-03   -0.72241E-03  3284   0.503E-02    0.202E-01
DAV:   7    -0.451178642954E+04   -0.12520E-02   -0.72614E-03  3700   0.522E-02    0.352E-01
DAV:   8    -0.451178497485E+04    0.14547E-02   -0.63514E-03  3476   0.463E-02    0.148E-01
DAV:   9    -0.451178517085E+04   -0.19600E-03   -0.20488E-03  3244   0.245E-02    0.889E-02
DAV:  10    -0.451178522572E+04   -0.54874E-04   -0.93699E-04  3260   0.172E-02    0.843E-02
DAV:  11    -0.451178517392E+04    0.51796E-04   -0.43878E-04  2676   0.120E-02    0.489E-02
DAV:  12    -0.451178517169E+04    0.22340E-05   -0.15272E-04  2204   0.763E-03    0.290E-02
DAV:  13    -0.451178517871E+04   -0.70176E-05   -0.84715E-05  2244   0.572E-03
  26 F= -.45512942E+04 E0= -.45506421E+04  d E =-.320259E-01
 curvature:  -1.48 expect dE=-0.117E+00 dE for cont linesearch -0.466E-04
 trial: gam= 0.86039 g(F)=  0.795E-01 g(S)=  0.000E+00 ort = 0.385E-02 (trialstep = 0.414E+00)
 search vector abs. value=  0.434E+00
 bond charge predicted
       N       E                     dE             d eps       ncg     rms          rms(c)
DAV:   1    -0.451179243100E+04   -0.72593E-02   -0.88964E+00  3038   0.264E+00    0.638E-01
DAV:   2    -0.451184538319E+04   -0.52952E-01   -0.34068E-01  3460   0.432E-01    0.185E+00
DAV:   3    -0.451180227644E+04    0.43107E-01   -0.18429E-01  3340   0.249E-01    0.683E-01
DAV:   4    -0.451181437317E+04   -0.12097E-01   -0.71494E-02  3572   0.144E-01    0.846E-01
DAV:   5    -0.451180726524E+04    0.71079E-02   -0.31826E-02  3244   0.112E-01    0.431E-01
DAV:   6    -0.451180809938E+04   -0.83414E-03   -0.96427E-03  3316   0.788E-02    0.350E-01
DAV:   7    -0.451181157626E+04   -0.34769E-02   -0.26709E-02  3732   0.867E-02    0.608E-01
DAV:   8    -0.451180688103E+04    0.46952E-02   -0.19848E-02  3316   0.784E-02    0.214E-01
DAV:   9    -0.451180779393E+04   -0.91290E-03   -0.45189E-03  3220   0.386E-02    0.135E-01
DAV:  10    -0.451180795328E+04   -0.15936E-03   -0.24909E-03  3372   0.271E-02    0.143E-01
DAV:  11    -0.451180775872E+04    0.19457E-03   -0.10920E-03  3212   0.191E-02    0.659E-02
DAV:  12    -0.451180778839E+04   -0.29678E-04   -0.30814E-04  2524   0.116E-02    0.456E-02
DAV:  13    -0.451180780339E+04   -0.14992E-04   -0.18569E-04  2796   0.927E-03    0.474E-02
DAV:  14    -0.451180778686E+04    0.16526E-04   -0.12201E-04  2204   0.727E-03    0.247E-02
DAV:  15    -0.451180779581E+04   -0.89505E-05   -0.46749E-05  2156   0.499E-03
  27 F= -.45513174E+04 E0= -.45506650E+04  d E =-.231593E-01
 trial-energy change:   -0.023159  1 .order   -0.023015   -0.034296   -0.011733
 step:   0.6180(harm=  0.6297)  dis= 0.01594  next Energy= -4551.320257 (dE=-0.261E-01)
 bond charge predicted
       N       E                     dE             d eps       ncg     rms          rms(c)
DAV:   1    -0.451180694574E+04    0.84112E-03   -0.21527E+00  3038   0.130E+00    0.317E-01
DAV:   2    -0.451182056566E+04   -0.13620E-01   -0.81841E-02  3468   0.215E-01    0.977E-01
DAV:   3    -0.451180844937E+04    0.12116E-01   -0.43409E-02  3268   0.124E-01    0.339E-01
DAV:   4    -0.451181215604E+04   -0.37067E-02   -0.14715E-02  3484   0.695E-02    0.414E-01
DAV:   5    -0.451181055091E+04    0.16051E-02   -0.70123E-03  3188   0.551E-02    0.222E-01
DAV:   6    -0.451181070079E+04   -0.14988E-03   -0.23703E-03  3308   0.392E-02    0.171E-01
DAV:   7    -0.451181161909E+04   -0.91830E-03   -0.61749E-03  3804   0.438E-02    0.307E-01
DAV:   8    -0.451181040064E+04    0.12185E-02   -0.49383E-03  3316   0.391E-02    0.104E-01
DAV:   9    -0.451181066092E+04   -0.26028E-03   -0.98335E-04  3196   0.196E-02    0.707E-02
DAV:  10    -0.451181068356E+04   -0.22636E-04   -0.55941E-04  3252   0.137E-02    0.655E-02
DAV:  11    -0.451181064931E+04    0.34253E-04   -0.24566E-04  2132   0.930E-03    0.337E-02
DAV:  12    -0.451181065344E+04   -0.41389E-05   -0.75307E-05  2044   0.596E-03
  28 F= -.45513205E+04 E0= -.45506681E+04  d E =-.262938E-01
 curvature:  -1.64 expect dE=-0.100E+00 dE for cont linesearch -0.794E-05
 trial: gam= 0.79072 g(F)=  0.610E-01 g(S)=  0.000E+00 ort = 0.145E-02 (trialstep = 0.455E+00)
 search vector abs. value=  0.334E+00
 bond charge predicted
       N       E                     dE             d eps       ncg     rms          rms(c)
DAV:   1    -0.451181302874E+04   -0.23794E-02   -0.83364E+00  3038   0.256E+00    0.588E-01
DAV:   2    -0.451185082341E+04   -0.37795E-01   -0.28288E-01  3420   0.391E-01    0.158E+00
DAV:   3    -0.451182472855E+04    0.26095E-01   -0.17477E-01  3364   0.199E-01    0.711E-01
DAV:   4    -0.451183136764E+04   -0.66391E-02   -0.46917E-02  3452   0.126E-01    0.721E-01
DAV:   5    -0.451182687222E+04    0.44954E-02   -0.18135E-02  3260   0.902E-02    0.350E-01
DAV:   6    -0.451182867457E+04   -0.18024E-02   -0.13857E-02  3660   0.754E-02    0.388E-01
DAV:   7    -0.451183068094E+04   -0.20064E-02   -0.20344E-02  3620   0.879E-02    0.576E-01
DAV:   8    -0.451182679160E+04    0.38893E-02   -0.14867E-02  3396   0.704E-02    0.180E-01
DAV:   9    -0.451182766855E+04   -0.87696E-03   -0.29995E-03  3236   0.356E-02    0.128E-01
DAV:  10    -0.451182763711E+04    0.31447E-04   -0.11931E-03  3212   0.229E-02    0.886E-02
DAV:  11    -0.451182759889E+04    0.38213E-04   -0.43937E-04  3204   0.152E-02    0.558E-02
DAV:  12    -0.451182760736E+04   -0.84659E-05   -0.32104E-04  2628   0.109E-02    0.496E-02
DAV:  13    -0.451182760502E+04    0.23429E-05   -0.24738E-04  2300   0.901E-03    0.446E-02
DAV:  14    -0.451182759792E+04    0.70979E-05   -0.14570E-04  2172   0.740E-03    0.287E-02
DAV:  15    -0.451182760259E+04   -0.46761E-05   -0.70401E-05  2156   0.557E-03
  29 F= -.45513382E+04 E0= -.45506860E+04  d E =-.176647E-01
 trial-energy change:   -0.017665  1 .order   -0.017511   -0.028260   -0.006763
 step:   0.5906(harm=  0.5981)  dis= 0.01337  next Energy= -4551.339165 (dE=-0.187E-01)
 bond charge predicted
       N       E                     dE             d eps       ncg     rms          rms(c)
DAV:   1    -0.451182722049E+04    0.37743E-03   -0.74124E-01  3038   0.762E-01    0.177E-01
DAV:   2    -0.451183085151E+04   -0.36310E-02   -0.28420E-02  3428   0.118E-01    0.501E-01
DAV:   3    -0.451182798158E+04    0.28699E-02   -0.19133E-02  3308   0.613E-02    0.213E-01
DAV:   4    -0.451182885117E+04   -0.86959E-03   -0.33848E-03  3332   0.374E-02    0.218E-01
DAV:   5    -0.451182844826E+04    0.40291E-03   -0.13892E-03  3172   0.266E-02    0.107E-01
DAV:   6    -0.451182861130E+04   -0.16304E-03   -0.12602E-03  3492   0.225E-02    0.117E-01
DAV:   7    -0.451182881473E+04   -0.20342E-03   -0.19334E-03  3532   0.266E-02    0.180E-01
DAV:   8    -0.451182843344E+04    0.38128E-03   -0.14591E-03  3380   0.216E-02    0.504E-02
DAV:   9    -0.451182853231E+04   -0.98866E-04   -0.26894E-04  3076   0.106E-02    0.406E-02
DAV:  10    -0.451182852835E+04    0.39596E-05   -0.13787E-04  2244   0.689E-03    0.286E-02
DAV:  11    -0.451182852653E+04    0.18219E-05   -0.46951E-05  2108   0.470E-03
  30 F= -.45513393E+04 E0= -.45506873E+04  d E =-.188056E-01
 curvature:  -1.61 expect dE=-0.722E-01 dE for cont linesearch -0.526E-05
 trial: gam= 0.72204 g(F)=  0.450E-01 g(S)=  0.000E+00 ort = 0.105E-02 (trialstep = 0.482E+00)
 search vector abs. value=  0.221E+00
 bond charge predicted
       N       E                     dE             d eps       ncg     rms          rms(c)
DAV:   1    -0.451183069008E+04   -0.21617E-02   -0.63341E+00  3038   0.223E+00    0.567E-01
DAV:   2    -0.451189226028E+04   -0.61570E-01   -0.31929E-01  3468   0.421E-01    0.209E+00
DAV:   3    -0.451183294942E+04    0.59311E-01   -0.24642E-01  3332   0.268E-01    0.696E-01
DAV:   4    -0.451184272721E+04   -0.97778E-02   -0.28173E-02  3509   0.122E-01    0.536E-01
DAV:   5    -0.451184263838E+04    0.88829E-04   -0.22247E-02  3180   0.920E-02    0.461E-01
DAV:   6    -0.451184107903E+04    0.15594E-02   -0.17535E-02  3252   0.731E-02    0.283E-01
DAV:   7    -0.451184306313E+04   -0.19841E-02   -0.13371E-02  3956   0.674E-02    0.470E-01
DAV:   8    -0.451184135347E+04    0.17097E-02   -0.15077E-02  3452   0.622E-02    0.309E-01
DAV:   9    -0.451184094317E+04    0.41030E-03   -0.63118E-03  3276   0.417E-02    0.125E-01
DAV:  10    -0.451184118518E+04   -0.24201E-03   -0.14411E-03  3260   0.250E-02    0.985E-02
DAV:  11    -0.451184118698E+04   -0.18031E-05   -0.92183E-04  3252   0.182E-02    0.918E-02
DAV:  12    -0.451184110397E+04    0.83013E-04   -0.50273E-04  2436   0.126E-02    0.407E-02
DAV:  13    -0.451184112386E+04   -0.19892E-04   -0.11921E-04  2380   0.759E-03    0.309E-02
DAV:  14    -0.451184112790E+04   -0.40426E-05   -0.61548E-05  2220   0.588E-03
  31 F= -.45513535E+04 E0= -.45507015E+04  d E =-.141656E-01
 trial-energy change:   -0.014166  1 .order   -0.014099   -0.022054   -0.006144
 step:   0.6621(harm=  0.6683)  dis= 0.01247  next Energy= -4551.354610 (dE=-0.153E-01)
 bond charge predicted
       N       E                     dE             d eps       ncg     rms          rms(c)
DAV:   1    -0.451184034285E+04    0.78101E-03   -0.88354E-01  3038   0.832E-01    0.213E-01
DAV:   2    -0.451184922098E+04   -0.88781E-02   -0.43743E-02  3452   0.158E-01    0.803E-01
DAV:   3    -0.451184035667E+04    0.88643E-02   -0.27456E-02  3300   0.103E-01    0.260E-01
DAV:   4    -0.451184205960E+04   -0.17029E-02   -0.39574E-03  3396   0.462E-02    0.206E-01
DAV:   5    -0.451184202470E+04    0.34899E-04   -0.34444E-03  3180   0.351E-02    0.175E-01
DAV:   6    -0.451184180345E+04    0.22125E-03   -0.24800E-03  3244   0.276E-02    0.106E-01
DAV:   7    -0.451184209100E+04   -0.28755E-03   -0.19242E-03  3932   0.254E-02    0.177E-01
DAV:   8    -0.451184186870E+04    0.22230E-03   -0.22552E-03  3460   0.236E-02    0.124E-01
DAV:   9    -0.451184179084E+04    0.77859E-04   -0.87103E-04  3164   0.166E-02    0.474E-02
DAV:  10    -0.451184182830E+04   -0.37458E-04   -0.21038E-04  2836   0.943E-03    0.357E-02
DAV:  11    -0.451184183258E+04   -0.42751E-05   -0.12808E-04  2204   0.693E-03    0.353E-02
DAV:  12    -0.451184182052E+04    0.12053E-04   -0.67782E-05  2044   0.487E-03    0.156E-02
DAV:  13    -0.451184182436E+04   -0.38401E-05   -0.18403E-05  1996   0.292E-03
  32 F= -.45513547E+04 E0= -.45507027E+04  d E =-.154476E-01
 curvature:  -1.61 expect dE=-0.725E-01 dE for cont linesearch -0.465E-05
 trial: gam= 0.99352 g(F)=  0.450E-01 g(S)=  0.000E+00 ort = 0.798E-03 (trialstep = 0.432E+00)
 search vector abs. value=  0.265E+00
 bond charge predicted
       N       E                     dE             d eps       ncg     rms          rms(c)
DAV:   1    -0.451184330735E+04   -0.14868E-02   -0.61393E+00  3038   0.218E+00    0.535E-01
DAV:   2    -0.451189700548E+04   -0.53698E-01   -0.27132E-01  3452   0.392E-01    0.196E+00
DAV:   3    -0.451184441019E+04    0.52595E-01   -0.17955E-01  3300   0.248E-01    0.568E-01
DAV:   4    -0.451185761049E+04   -0.13200E-01   -0.42864E-02  3500   0.121E-01    0.654E-01
DAV:   5    -0.451185392425E+04    0.36862E-02   -0.23031E-02  3204   0.934E-02    0.376E-01
DAV:   6    -0.451185398290E+04   -0.58658E-04   -0.88307E-03  3276   0.651E-02    0.284E-01
DAV:   7    -0.451185653171E+04   -0.25488E-02   -0.16317E-02  3876   0.740E-02    0.503E-01
DAV:   8    -0.451185337424E+04    0.31575E-02   -0.15921E-02  3324   0.659E-02    0.211E-01
DAV:   9    -0.451185380734E+04   -0.43310E-03   -0.39685E-03  3268   0.340E-02    0.111E-01
DAV:  10    -0.451185391161E+04   -0.10427E-03   -0.10218E-03  3252   0.222E-02    0.931E-02
DAV:  11    -0.451185384796E+04    0.63652E-04   -0.41010E-04  3212   0.148E-02    0.559E-02
DAV:  12    -0.451185385201E+04   -0.40497E-05   -0.27312E-04  2500   0.987E-03    0.433E-02
DAV:  13    -0.451185385164E+04    0.36566E-06   -0.15166E-04  2276   0.762E-03    0.357E-02
DAV:  14    -0.451185384719E+04    0.44471E-05   -0.54100E-05  2180   0.577E-03
  33 F= -.45513685E+04 E0= -.45507165E+04  d E =-.137654E-01
 trial-energy change:   -0.013765  1 .order   -0.013658   -0.019806   -0.007509
 step:   0.6764(harm=  0.6965)  dis= 0.01405  next Energy= -4551.370645 (dE=-0.159E-01)
 bond charge predicted
       N       E                     dE             d eps       ncg     rms          rms(c)
DAV:   1    -0.451185191556E+04    0.19361E-02   -0.19551E+00  3038   0.123E+00    0.303E-01
DAV:   2    -0.451186935378E+04   -0.17438E-01   -0.84726E-02  3468   0.222E-01    0.114E+00
DAV:   3    -0.451185165977E+04    0.17694E-01   -0.60441E-02  3276   0.140E-01    0.321E-01
DAV:   4    -0.451185649395E+04   -0.48342E-02   -0.12297E-02  3428   0.684E-02    0.372E-01
DAV:   5    -0.451185532074E+04    0.11732E-02   -0.70394E-03  3164   0.529E-02    0.215E-01
DAV:   6    -0.451185532650E+04   -0.57623E-05   -0.25460E-03  3244   0.367E-02    0.160E-01
DAV:   7    -0.451185614866E+04   -0.82215E-03   -0.47727E-03  3884   0.418E-02    0.283E-01
DAV:   8    -0.451185515291E+04    0.99575E-03   -0.44340E-03  3348   0.374E-02    0.121E-01
DAV:   9    -0.451185529106E+04   -0.13814E-03   -0.12835E-03  3268   0.196E-02    0.664E-02
DAV:  10    -0.451185531658E+04   -0.25524E-04   -0.34211E-04  3164   0.127E-02    0.496E-02
DAV:  11    -0.451185530738E+04    0.92011E-05   -0.13625E-04  2324   0.858E-03    0.362E-02
DAV:  12    -0.451185530235E+04    0.50304E-05   -0.90822E-05  2132   0.590E-03
  34 F= -.45513710E+04 E0= -.45507190E+04  d E =-.162094E-01
 curvature:  -2.00 expect dE=-0.877E-01 dE for cont linesearch -0.209E-04
 trial: gam= 0.94432 g(F)=  0.439E-01 g(S)=  0.000E+00 ort = 0.166E-02 (trialstep = 0.450E+00)
 search vector abs. value=  0.283E+00
 bond charge predicted
       N       E                     dE             d eps       ncg     rms          rms(c)
DAV:   1    -0.451185430732E+04    0.10001E-02   -0.73768E+00  3038   0.238E+00    0.555E-01
DAV:   2    -0.451189418476E+04   -0.39877E-01   -0.25863E-01  3372   0.375E-01    0.170E+00
DAV:   3    -0.451186215248E+04    0.32032E-01   -0.17870E-01  3276   0.198E-01    0.639E-01
DAV:   4    -0.451187062785E+04   -0.84754E-02   -0.42596E-02  3452   0.119E-01    0.622E-01
DAV:   5    -0.451186733486E+04    0.32930E-02   -0.19883E-02  3188   0.854E-02    0.360E-01
DAV:   6    -0.451186818602E+04   -0.85116E-03   -0.11934E-02  3476   0.677E-02    0.352E-01
DAV:   7    -0.451187041072E+04   -0.22247E-02   -0.21631E-02  3684   0.798E-02    0.537E-01
DAV:   8    -0.451186691443E+04    0.34963E-02   -0.20396E-02  3412   0.697E-02    0.186E-01
DAV:   9    -0.451186755257E+04   -0.63815E-03   -0.21198E-03  3220   0.337E-02    0.106E-01
DAV:  10    -0.451186763097E+04   -0.78399E-04   -0.10962E-03  3340   0.215E-02    0.102E-01
DAV:  11    -0.451186756165E+04    0.69327E-04   -0.45143E-04  3220   0.160E-02    0.726E-02
DAV:  12    -0.451186753585E+04    0.25796E-04   -0.19392E-04  2420   0.107E-02    0.383E-02
DAV:  13    -0.451186755450E+04   -0.18650E-04   -0.17066E-04  2372   0.811E-03    0.430E-02
DAV:  14    -0.451186754139E+04    0.13112E-04   -0.10626E-04  2164   0.673E-03    0.219E-02
DAV:  15    -0.451186754715E+04   -0.57560E-05   -0.43963E-05  2140   0.469E-03
  35 F= -.45513845E+04 E0= -.45507330E+04  d E =-.135397E-01
 trial-energy change:   -0.013540  1 .order   -0.013425   -0.020448   -0.006403
 step:   0.6418(harm=  0.6551)  dis= 0.01376  next Energy= -4551.385864 (dE=-0.149E-01)
 bond charge predicted
       N       E                     dE             d eps       ncg     rms          rms(c)
DAV:   1    -0.451186611620E+04    0.14252E-02   -0.13407E+00  3038   0.101E+00    0.238E-01
DAV:   2    -0.451187381182E+04   -0.76956E-02   -0.53841E-02  3396   0.161E-01    0.759E-01
DAV:   3    -0.451186706753E+04    0.67443E-02   -0.17313E-02  3268   0.870E-02    0.268E-01
DAV:   4    -0.451186907932E+04   -0.20118E-02   -0.59269E-03  3396   0.510E-02    0.266E-01
DAV:   5    -0.451186847006E+04    0.60926E-03   -0.30927E-03  3156   0.363E-02    0.153E-01
DAV:   6    -0.451186863156E+04   -0.16150E-03   -0.21291E-03  3452   0.290E-02    0.151E-01
DAV:   7    -0.451186904973E+04   -0.41817E-03   -0.36576E-03  3628   0.344E-02    0.232E-01
DAV:   8    -0.451186838490E+04    0.66484E-03   -0.31830E-03  3396   0.297E-02    0.756E-02
DAV:   9    -0.451186852221E+04   -0.13731E-03   -0.35763E-04  3204   0.144E-02    0.457E-02
DAV:  10    -0.451186853543E+04   -0.13220E-04   -0.19716E-04  2708   0.924E-03    0.441E-02
DAV:  11    -0.451186852330E+04    0.12132E-04   -0.87031E-05  2036   0.695E-03    0.314E-02
DAV:  12    -0.451186851874E+04    0.45607E-05   -0.35397E-05  1996   0.461E-03
  36 F= -.45513860E+04 E0= -.45507346E+04  d E =-.150635E-01
 curvature:  -2.03 expect dE=-0.860E-01 dE for cont linesearch -0.583E-05
 trial: gam= 1.00248 g(F)=  0.424E-01 g(S)=  0.000E+00 ort = 0.901E-03 (trialstep = 0.421E+00)
 search vector abs. value=  0.328E+00
 bond charge predicted
       N       E                     dE             d eps       ncg     rms          rms(c)
DAV:   1    -0.451186658335E+04    0.19399E-02   -0.77040E+00  3038   0.242E+00    0.599E-01
DAV:   2    -0.451193782720E+04   -0.71244E-01   -0.48176E-01  3404   0.444E-01    0.223E+00
DAV:   3    -0.451186821732E+04    0.69610E-01   -0.25879E-01  3300   0.281E-01    0.609E-01
DAV:   4    -0.451188299882E+04   -0.14781E-01   -0.26028E-02  3436   0.121E-01    0.634E-01
DAV:   5    -0.451188039012E+04    0.26087E-02   -0.20022E-02  3212   0.922E-02    0.406E-01
DAV:   6    -0.451188052853E+04   -0.13840E-03   -0.16136E-02  3332   0.750E-02    0.347E-01
DAV:   7    -0.451188215416E+04   -0.16256E-02   -0.16949E-02  3828   0.743E-02    0.501E-01
DAV:   8    -0.451187958164E+04    0.25725E-02   -0.11694E-02  3404   0.644E-02    0.202E-01
DAV:   9    -0.451188004302E+04   -0.46138E-03   -0.32632E-03  3276   0.369E-02    0.134E-01
DAV:  10    -0.451188013606E+04   -0.93041E-04   -0.19935E-03  3364   0.257E-02    0.131E-01
DAV:  11    -0.451187997460E+04    0.16146E-03   -0.78252E-04  3228   0.181E-02    0.566E-02
DAV:  12    -0.451188000022E+04   -0.25620E-04   -0.21461E-04  2620   0.104E-02    0.409E-02
DAV:  13    -0.451188000559E+04   -0.53699E-05   -0.13687E-04  2452   0.768E-03    0.368E-02
DAV:  14    -0.451188000097E+04    0.46127E-05   -0.68048E-05  2196   0.618E-03
  37 F= -.45513990E+04 E0= -.45507480E+04  d E =-.129618E-01
 trial-energy change:   -0.012962  1 .order   -0.012790   -0.018197   -0.007383
 step:   0.6699(harm=  0.7078)  dis= 0.01553  next Energy= -4551.401200 (dE=-0.152E-01)
 bond charge predicted
       N       E                     dE             d eps       ncg     rms          rms(c)
DAV:   1    -0.451187705680E+04    0.29488E-02   -0.27083E+00  3038   0.143E+00    0.357E-01
DAV:   2    -0.451190280118E+04   -0.25744E-01   -0.18184E-01  3436   0.263E-01    0.138E+00
DAV:   3    -0.451187664561E+04    0.26156E-01   -0.78673E-02  3284   0.167E-01    0.361E-01
DAV:   4    -0.451188285365E+04   -0.62080E-02   -0.87613E-03  3420   0.721E-02    0.375E-01
DAV:   5    -0.451188186635E+04    0.98730E-03   -0.64763E-03  3204   0.546E-02    0.231E-01
DAV:   6    -0.451188199538E+04   -0.12903E-03   -0.53871E-03  3396   0.438E-02    0.207E-01
DAV:   7    -0.451188253583E+04   -0.54045E-03   -0.56194E-03  3788   0.445E-02    0.296E-01
DAV:   8    -0.451188164966E+04    0.88617E-03   -0.38084E-03  3436   0.378E-02    0.126E-01
DAV:   9    -0.451188178921E+04   -0.13956E-03   -0.73117E-04  3204   0.219E-02    0.713E-02
DAV:  10    -0.451188184135E+04   -0.52136E-04   -0.47155E-04  3252   0.146E-02    0.774E-02
DAV:  11    -0.451188178973E+04    0.51614E-04   -0.29868E-04  2228   0.107E-02    0.416E-02
DAV:  12    -0.451188179161E+04   -0.18807E-05   -0.11945E-04  2092   0.664E-03    0.248E-02
DAV:  13    -0.451188179599E+04   -0.43805E-05   -0.51235E-05  2252   0.477E-03
  38 F= -.45514017E+04 E0= -.45507508E+04  d E =-.156363E-01
 curvature:  -2.64 expect dE=-0.110E+00 dE for cont linesearch -0.598E-04
 trial: gam= 0.91121 g(F)=  0.416E-01 g(S)=  0.000E+00 ort = 0.273E-02 (trialstep = 0.470E+00)
 search vector abs. value=  0.319E+00
 bond charge predicted
       N       E                     dE             d eps       ncg     rms          rms(c)
DAV:   1    -0.451187742200E+04    0.43696E-02   -0.95572E+00  3038   0.268E+00    0.616E-01
DAV:   2    -0.451192706899E+04   -0.49647E-01   -0.31325E-01  3308   0.429E-01    0.169E+00
DAV:   3    -0.451189004449E+04    0.37024E-01   -0.22417E-01  3284   0.241E-01    0.672E-01
DAV:   4    -0.451190024541E+04   -0.10201E-01   -0.47060E-02  3708   0.134E-01    0.773E-01
DAV:   5    -0.451189472091E+04    0.55245E-02   -0.35928E-02  3348   0.106E-01    0.433E-01
DAV:   6    -0.451189529631E+04   -0.57540E-03   -0.15335E-02  3524   0.779E-02    0.369E-01
DAV:   7    -0.451189694545E+04   -0.16491E-02   -0.13123E-02  3564   0.792E-02    0.456E-01
DAV:   8    -0.451189486068E+04    0.20848E-02   -0.13763E-02  3396   0.692E-02    0.256E-01
DAV:   9    -0.451189476830E+04    0.92379E-04   -0.59088E-03  3380   0.412E-02    0.143E-01
DAV:  10    -0.451189479876E+04   -0.30458E-04   -0.12586E-03  3340   0.248E-02    0.104E-01
DAV:  11    -0.451189474383E+04    0.54930E-04   -0.61261E-04  3252   0.169E-02    0.635E-02
DAV:  12    -0.451189473886E+04    0.49710E-05   -0.19608E-04  2660   0.112E-02    0.490E-02
DAV:  13    -0.451189474861E+04   -0.97522E-05   -0.20178E-04  2652   0.878E-03    0.521E-02
DAV:  14    -0.451189472948E+04    0.19132E-04   -0.12021E-04  2308   0.713E-03    0.230E-02
DAV:  15    -0.451189474131E+04   -0.11830E-04   -0.33339E-05  2228   0.502E-03    0.233E-02
DAV:  16    -0.451189474074E+04    0.57023E-06   -0.20235E-05  2164   0.372E-03
  39 F= -.45514158E+04 E0= -.45507649E+04  d E =-.141489E-01
 trial-energy change:   -0.014149  1 .order   -0.014022   -0.020756   -0.007287
 step:   0.7050(harm=  0.7250)  dis= 0.01529  next Energy= -4551.417632 (dE=-0.160E-01)
 bond charge predicted
       N       E                     dE             d eps       ncg     rms          rms(c)
DAV:   1    -0.451189192765E+04    0.28137E-02   -0.23762E+00  3038   0.134E+00    0.308E-01
DAV:   2    -0.451190479346E+04   -0.12866E-01   -0.80952E-02  3308   0.216E-01    0.875E-01
DAV:   3    -0.451189458559E+04    0.10208E-01   -0.53003E-02  3276   0.123E-01    0.333E-01
DAV:   4    -0.451189761460E+04   -0.30290E-02   -0.97308E-03  3772   0.670E-02    0.393E-01
DAV:   5    -0.451189617719E+04    0.14374E-02   -0.81752E-03  3372   0.535E-02    0.218E-01
DAV:   6    -0.451189632791E+04   -0.15072E-03   -0.34832E-03  3540   0.388E-02    0.183E-01
DAV:   7    -0.451189675492E+04   -0.42701E-03   -0.31573E-03  3548   0.395E-02    0.227E-01
DAV:   8    -0.451189622654E+04    0.52838E-03   -0.38599E-03  3332   0.345E-02    0.124E-01
DAV:   9    -0.451189622167E+04    0.48650E-05   -0.13607E-03  3324   0.205E-02    0.729E-02
DAV:  10    -0.451189622589E+04   -0.42189E-05   -0.33311E-04  3164   0.125E-02    0.533E-02
DAV:  11    -0.451189621112E+04    0.14767E-04   -0.15297E-04  2156   0.854E-03    0.321E-02
DAV:  12    -0.451189621123E+04   -0.10041E-06   -0.49921E-05  2140   0.574E-03
  40 F= -.45514179E+04 E0= -.45507671E+04  d E =-.162235E-01
 curvature:  -2.61 expect dE=-0.116E+00 dE for cont linesearch -0.129E-04
 trial: gam= 1.13102 g(F)=  0.443E-01 g(S)=  0.000E+00 ort = 0.126E-02 (trialstep = 0.363E+00)
 search vector abs. value=  0.456E+00
 bond charge predicted
       N       E                     dE             d eps       ncg     rms          rms(c)
DAV:   1    -0.451189327138E+04    0.29397E-02   -0.80997E+00  3038   0.247E+00    0.575E-01
DAV:   2    -0.451193300559E+04   -0.39734E-01   -0.27684E-01  3316   0.382E-01    0.164E+00
DAV:   3    -0.451190311427E+04    0.29891E-01   -0.12872E-01  3300   0.201E-01    0.653E-01
DAV:   4    -0.451191193120E+04   -0.88169E-02   -0.50111E-02  3460   0.122E-01    0.703E-01
DAV:   5    -0.451190720047E+04    0.47307E-02   -0.20335E-02  3292   0.898E-02    0.343E-01
DAV:   6    -0.451190897583E+04   -0.17754E-02   -0.98630E-03  3516   0.719E-02    0.372E-01
DAV:   7    -0.451191015469E+04   -0.11789E-02   -0.12054E-02  3596   0.776E-02    0.476E-01
DAV:   8    -0.451190784204E+04    0.23126E-02   -0.78442E-03  3428   0.637E-02    0.196E-01
DAV:   9    -0.451190827449E+04   -0.43245E-03   -0.42233E-03  3348   0.382E-02    0.170E-01
DAV:  10    -0.451190804412E+04    0.23037E-03   -0.16386E-03  3308   0.253E-02    0.849E-02
DAV:  11    -0.451190805496E+04   -0.10840E-04   -0.41373E-04  3244   0.154E-02    0.616E-02
DAV:  12    -0.451190805487E+04    0.92230E-07   -0.31682E-04  2556   0.110E-02    0.553E-02
DAV:  13    -0.451190804649E+04    0.83752E-05   -0.25846E-04  2308   0.913E-03    0.442E-02
DAV:  14    -0.451190803725E+04    0.92441E-05   -0.93871E-05  2252   0.700E-03
  41 F= -.45514305E+04 E0= -.45507796E+04  d E =-.125894E-01
 trial-energy change:   -0.012589  1 .order   -0.012372   -0.016584   -0.008159
 step:   0.6384(harm=  0.7138)  dis= 0.01588  next Energy= -4551.433663 (dE=-0.158E-01)
 bond charge predicted
       N       E                     dE             d eps       ncg     rms          rms(c)
DAV:   1    -0.451190304885E+04    0.49976E-02   -0.46893E+00  3038   0.188E+00    0.441E-01
[...]
DAV:   8    -0.451210041434E+04    0.19543E-02   -0.13549E-02  3356   0.711E-02    0.196E-01
DAV:   9    -0.451210095114E+04   -0.53680E-03   -0.29272E-03  3228   0.367E-02    0.145E-01
DAV:  10    -0.451210093748E+04    0.13660E-04   -0.12204E-03  3524   0.247E-02    0.123E-01
DAV:  11    -0.451210085497E+04    0.82516E-04   -0.10526E-03  3292   0.199E-02    0.841E-02
DAV:  12    -0.451210082349E+04    0.31480E-04   -0.37174E-04  3076   0.138E-02    0.460E-02
DAV:  13    -0.451210085621E+04   -0.32719E-04   -0.14836E-04  2924   0.107E-02    0.515E-02
DAV:  14    -0.451210083781E+04    0.18393E-04   -0.88222E-05  2276   0.790E-03    0.258E-02
DAV:  15    -0.451210085400E+04   -0.16183E-04   -0.62169E-05  2220   0.569E-03    0.286E-02
DAV:  16    -0.451210085547E+04   -0.14711E-05   -0.43487E-05  2196   0.472E-03
  65 F= -.45516469E+04 E0= -.45509979E+04  d E =-.212675E-01
 curvature:  -7.68 expect dE=-0.381E+00 dE for cont linesearch -0.270E-02
 ZBRENT: increasing intervall
 opt :   0.8920  next Energy= -4551.649186 (dE=-0.235E-01)
 bond charge predicted
       N       E                     dE             d eps       ncg     rms          rms(c)
DAV:   1    -0.451199072007E+04    0.11013E+00   -0.60332E+01  3038   0.682E+00    0.146E+00
DAV:   2    -0.451218433502E+04   -0.19361E+00   -0.18160E+00  3260   0.975E-01    0.261E+00
DAV:   3    -0.451212181658E+04    0.62518E-01   -0.33833E-01  3364   0.458E-01    0.198E+00
DAV:   4    -0.451211669856E+04    0.51180E-02   -0.19548E-01  3396   0.306E-01    0.150E+00
DAV:   5    -0.451210060839E+04    0.16090E-01   -0.99624E-02  3396   0.233E-01    0.898E-01
DAV:   6    -0.451211794207E+04   -0.17334E-01   -0.15772E-01  3860   0.217E-01    0.141E+00
DAV:   7    -0.451210544030E+04    0.12502E-01   -0.14507E-01  3476   0.202E-01    0.957E-01
DAV:   8    -0.451209941750E+04    0.60228E-02   -0.48312E-02  3356   0.138E-01    0.403E-01
DAV:   9    -0.451210109835E+04   -0.16809E-02   -0.12837E-02  3308   0.732E-02    0.309E-01
DAV:  10    -0.451210085362E+04    0.24473E-03   -0.61513E-03  3452   0.497E-02    0.225E-01
DAV:  11    -0.451210069010E+04    0.16352E-03   -0.34506E-03  3428   0.389E-02    0.170E-01
DAV:  12    -0.451210061067E+04    0.79426E-04   -0.20218E-03  3364   0.273E-02    0.112E-01
DAV:  13    -0.451210067406E+04   -0.63382E-04   -0.78820E-04  3460   0.217E-02    0.103E-01
DAV:  14    -0.451210060628E+04    0.67777E-04   -0.30105E-04  3428   0.150E-02    0.522E-02
DAV:  15    -0.451210067985E+04   -0.73570E-04   -0.22892E-04  2924   0.117E-02    0.647E-02
DAV:  16    -0.451210066549E+04    0.14355E-04   -0.19374E-04  2420   0.101E-02    0.336E-02
DAV:  17    -0.451210068637E+04   -0.20874E-04   -0.82139E-05  2380   0.677E-03    0.242E-02
DAV:  18    -0.451210071056E+04   -0.24198E-04   -0.42341E-05  2220   0.515E-03    0.219E-02
DAV:  19    -0.451210071623E+04   -0.56660E-05   -0.20408E-05  2236   0.351E-03
  66 F= -.45516490E+04 E0= -.45510000E+04  d E =-.233460E-01
 curvature:  -6.48 expect dE=-0.887E+00 dE for cont linesearch -0.119E-02
 ZBRENT: bracketing found
 ZBRENT: interpolating
 opt :   0.6954  next Energy= -4551.650961 (dE=-0.253E-01)
 bond charge predicted
       N       E                     dE             d eps       ncg     rms          rms(c)
DAV:   1    -0.451208430232E+04    0.16408E-01   -0.10636E+01  3038   0.286E+00    0.611E-01
DAV:   2    -0.451211954196E+04   -0.35240E-01   -0.30228E-01  3260   0.407E-01    0.131E+00
DAV:   3    -0.451210473328E+04    0.14809E-01   -0.13051E-01  3348   0.187E-01    0.808E-01
DAV:   4    -0.451210637603E+04   -0.16427E-02   -0.45676E-02  3436   0.122E-01    0.632E-01
DAV:   5    -0.451210336400E+04    0.30120E-02   -0.28650E-02  3364   0.965E-02    0.364E-01
DAV:   6    -0.451210690366E+04   -0.35397E-02   -0.29832E-02  3868   0.906E-02    0.605E-01
DAV:   7    -0.451210490665E+04    0.19970E-02   -0.32010E-02  3548   0.917E-02    0.468E-01
DAV:   8    -0.451210318984E+04    0.17168E-02   -0.12231E-02  3340   0.623E-02    0.163E-01
DAV:   9    -0.451210368858E+04   -0.49873E-03   -0.19765E-03  3212   0.317E-02    0.128E-01
DAV:  10    -0.451210364677E+04    0.41806E-04   -0.10723E-03  3436   0.218E-02    0.972E-02
DAV:  11    -0.451210359836E+04    0.48406E-04   -0.55589E-04  3140   0.159E-02    0.634E-02
DAV:  12    -0.451210357947E+04    0.18891E-04   -0.22149E-04  2636   0.113E-02    0.377E-02
DAV:  13    -0.451210358985E+04   -0.10376E-04   -0.94559E-05  2404   0.866E-03    0.387E-02
DAV:  14    -0.451210357649E+04    0.13358E-04   -0.53217E-05  2180   0.624E-03    0.194E-02
DAV:  15    -0.451210358218E+04   -0.56876E-05   -0.32620E-05  2076   0.446E-03
  67 F= -.45516509E+04 E0= -.45510020E+04  d E =-.252935E-01
 curvature: -10.73 expect dE=-0.921E+00 dE for cont linesearch -0.145E-04
 trial: gam= 1.01213 g(F)=  0.858E-01 g(S)=  0.000E+00 ort = 0.172E-02 (trialstep = 0.273E+00)
 search vector abs. value=  0.233E+01
 bond charge predicted
       N       E                     dE             d eps       ncg     rms          rms(c)
DAV:   1    -0.451208117258E+04    0.22404E-01   -0.22010E+01  3038   0.412E+00    0.891E-01
DAV:   2    -0.451216188886E+04   -0.80716E-01   -0.61936E-01  3284   0.606E-01    0.195E+00
DAV:   3    -0.451212153758E+04    0.40351E-01   -0.31259E-01  3356   0.306E-01    0.108E+00
DAV:   4    -0.451213371216E+04   -0.12175E-01   -0.15640E-01  3436   0.203E-01    0.120E+00
DAV:   5    -0.451211889796E+04    0.14814E-01   -0.74758E-02  3324   0.158E-01    0.576E-01
DAV:   6    -0.451212352416E+04   -0.46262E-02   -0.43036E-02  3532   0.120E-01    0.638E-01
DAV:   7    -0.451212846009E+04   -0.49359E-02   -0.66867E-02  3596   0.134E-01    0.838E-01
DAV:   8    -0.451212020036E+04    0.82597E-02   -0.45932E-02  3412   0.115E-01    0.374E-01
DAV:   9    -0.451212066433E+04   -0.46397E-03   -0.79351E-03  3292   0.580E-02    0.176E-01
DAV:  10    -0.451212085015E+04   -0.18582E-03   -0.21525E-03  3340   0.325E-02    0.128E-01
DAV:  11    -0.451212085350E+04   -0.33446E-05   -0.94743E-04  3332   0.236E-02    0.120E-01
DAV:  12    -0.451212072249E+04    0.13101E-03   -0.61724E-04  3236   0.176E-02    0.616E-02
DAV:  13    -0.451212076692E+04   -0.44429E-04   -0.37287E-04  3180   0.131E-02    0.638E-02
DAV:  14    -0.451212074584E+04    0.21082E-04   -0.22890E-04  2844   0.105E-02    0.438E-02
DAV:  15    -0.451212074247E+04    0.33668E-05   -0.68707E-05  2260   0.711E-03
  68 F= -.45516696E+04 E0= -.45510207E+04  d E =-.186344E-01
 trial-energy change:   -0.018634  1 .order   -0.018599   -0.023906   -0.013292
 step:   0.6147(harm=  0.6147)  dis= 0.04448  next Energy= -4551.677856 (dE=-0.269E-01)
 bond charge predicted
       N       E                     dE             d eps       ncg     rms          rms(c)
DAV:   1    -0.451206584780E+04    0.54898E-01   -0.34526E+01  3038   0.515E+00    0.112E+00
DAV:   2    -0.451219331592E+04   -0.12747E+00   -0.96601E-01  3268   0.761E-01    0.245E+00
DAV:   3    -0.451213034370E+04    0.62972E-01   -0.39165E-01  3332   0.384E-01    0.135E+00
DAV:   4    -0.451214900074E+04   -0.18657E-01   -0.23001E-01  3404   0.256E-01    0.152E+00
DAV:   5    -0.451212554594E+04    0.23455E-01   -0.12955E-01  3356   0.198E-01    0.726E-01
DAV:   6    -0.451213271249E+04   -0.71666E-02   -0.69149E-02  3572   0.150E-01    0.803E-01
DAV:   7    -0.451214032605E+04   -0.76136E-02   -0.96343E-02  3636   0.167E-01    0.104E+00
DAV:   8    -0.451212770530E+04    0.12621E-01   -0.72921E-02  3420   0.143E-01    0.466E-01
DAV:   9    -0.451212832536E+04   -0.62006E-03   -0.14769E-02  3300   0.733E-02    0.232E-01
DAV:  10    -0.451212850477E+04   -0.17941E-03   -0.36962E-03  3356   0.416E-02    0.154E-01
DAV:  11    -0.451212855692E+04   -0.52144E-04   -0.15707E-03  3356   0.298E-02    0.151E-01
DAV:  12    -0.451212834825E+04    0.20867E-03   -0.95957E-04  3324   0.221E-02    0.759E-02
DAV:  13    -0.451212844004E+04   -0.91793E-04   -0.61707E-04  3412   0.167E-02    0.847E-02
DAV:  14    -0.451212840832E+04    0.31726E-04   -0.40084E-04  3252   0.134E-02    0.562E-02
DAV:  15    -0.451212841097E+04   -0.26515E-05   -0.11401E-04  2476   0.900E-03    0.308E-02
DAV:  16    -0.451212844353E+04   -0.32565E-04   -0.70125E-05  2356   0.705E-03    0.375E-02
DAV:  17    -0.451212844625E+04   -0.27137E-05   -0.49974E-05  2196   0.581E-03
  69 F= -.45516791E+04 E0= -.45510305E+04  d E =-.281188E-01
 curvature:  -8.19 expect dE=-0.629E+00 dE for cont linesearch -0.641E-04
 trial: gam= 0.82969 g(F)=  0.768E-01 g(S)=  0.000E+00 ort = 0.427E-02 (trialstep = 0.341E+00)
 search vector abs. value=  0.169E+01
 bond charge predicted
       N       E                     dE             d eps       ncg     rms          rms(c)
DAV:   1    -0.451210255193E+04    0.25892E-01   -0.24964E+01  3038   0.437E+00    0.938E-01
DAV:   2    -0.451218031236E+04   -0.77760E-01   -0.66828E-01  3252   0.624E-01    0.174E+00
DAV:   3    -0.451215504649E+04    0.25266E-01   -0.24059E-01  3340   0.301E-01    0.125E+00
DAV:   4    -0.451215883346E+04   -0.37870E-02   -0.19278E-01  3324   0.207E-01    0.116E+00
DAV:   5    -0.451214692040E+04    0.11913E-01   -0.10133E-01  3316   0.158E-01    0.611E-01
DAV:   6    -0.451215223386E+04   -0.53135E-02   -0.55239E-02  3548   0.129E-01    0.731E-01
DAV:   7    -0.451215357700E+04   -0.13431E-02   -0.51056E-02  3708   0.130E-01    0.825E-01
DAV:   8    -0.451214816189E+04    0.54151E-02   -0.39219E-02  3436   0.112E-01    0.399E-01
DAV:   9    -0.451214790207E+04    0.25981E-03   -0.10252E-02  3300   0.641E-02    0.169E-01
DAV:  10    -0.451214812030E+04   -0.21823E-03   -0.30948E-03  3412   0.339E-02    0.138E-01
DAV:  11    -0.451214813577E+04   -0.15470E-04   -0.16838E-03  3404   0.254E-02    0.129E-01
DAV:  12    -0.451214798284E+04    0.15293E-03   -0.96445E-04  3348   0.191E-02    0.607E-02
DAV:  13    -0.451214806482E+04   -0.81981E-04   -0.39723E-04  3244   0.138E-02    0.721E-02
DAV:  14    -0.451214803900E+04    0.25815E-04   -0.24839E-04  2988   0.110E-02    0.396E-02
DAV:  15    -0.451214805120E+04   -0.12194E-04   -0.91550E-05  2356   0.746E-03    0.264E-02
DAV:  16    -0.451214807491E+04   -0.23717E-04   -0.52447E-05  2236   0.598E-03    0.322E-02
DAV:  17    -0.451214807539E+04   -0.47215E-06   -0.31858E-05  2196   0.473E-03
  70 F= -.45517007E+04 E0= -.45510524E+04  d E =-.216487E-01
 trial-energy change:   -0.021649  1 .order   -0.021367   -0.027430   -0.015303
 step:   0.6785(harm=  0.7720)  dis= 0.04191  next Energy= -4551.708532 (dE=-0.295E-01)
 bond charge predicted
       N       E                     dE             d eps       ncg     rms          rms(c)
DAV:   1    -0.451211115377E+04    0.36921E-01   -0.24359E+01  3038   0.432E+00    0.926E-01
DAV:   2    -0.451218670250E+04   -0.75549E-01   -0.65094E-01  3236   0.616E-01    0.171E+00
DAV:   3    -0.451216246528E+04    0.24237E-01   -0.22958E-01  3316   0.295E-01    0.123E+00
DAV:   4    -0.451216605700E+04   -0.35917E-02   -0.18745E-01  3332   0.204E-01    0.114E+00
DAV:   5    -0.451215448727E+04    0.11570E-01   -0.99363E-02  3316   0.156E-01    0.604E-01
DAV:   6    -0.451215955880E+04   -0.50715E-02   -0.51586E-02  3500   0.128E-01    0.717E-01
DAV:   7    -0.451216088958E+04   -0.13308E-02   -0.48646E-02  3732   0.128E-01    0.812E-01
DAV:   8    -0.451215563296E+04    0.52566E-02   -0.36494E-02  3428   0.110E-01    0.394E-01
DAV:   9    -0.451215536655E+04    0.26642E-03   -0.93926E-03  3284   0.629E-02    0.164E-01
DAV:  10    -0.451215560365E+04   -0.23710E-03   -0.31764E-03  3436   0.334E-02    0.139E-01
DAV:  11    -0.451215559689E+04    0.67611E-05   -0.16430E-03  3404   0.250E-02    0.125E-01
DAV:  12    -0.451215546246E+04    0.13443E-03   -0.87893E-04  3332   0.186E-02    0.606E-02
DAV:  13    -0.451215553604E+04   -0.73577E-04   -0.39424E-04  3276   0.136E-02    0.696E-02
DAV:  14    -0.451215551557E+04    0.20466E-04   -0.23287E-04  2948   0.108E-02    0.399E-02
DAV:  15    -0.451215552546E+04   -0.98909E-05   -0.89587E-05  2348   0.740E-03
  71 F= -.45517101E+04 E0= -.45510619E+04  d E =-.310274E-01
 curvature:  -7.73 expect dE=-0.637E+00 dE for cont linesearch -0.386E-03
 trial: gam= 1.03690 g(F)=  0.823E-01 g(S)=  0.000E+00 ort = 0.919E-02 (trialstep = 0.360E+00)
 search vector abs. value=  0.192E+01
 bond charge predicted
       N       E                     dE             d eps       ncg     rms          rms(c)
DAV:   1    -0.451212349397E+04    0.32022E-01   -0.30899E+01  3038   0.486E+00    0.105E+00
DAV:   2    -0.451221204389E+04   -0.88550E-01   -0.81203E-01  3260   0.687E-01    0.165E+00
DAV:   3    -0.451219504693E+04    0.16997E-01   -0.24609E-01  3484   0.335E-01    0.146E+00
DAV:   4    -0.451218932376E+04    0.57232E-02   -0.13288E-01  3380   0.233E-01    0.121E+00
DAV:   5    -0.451217897640E+04    0.10347E-01   -0.60305E-02  3340   0.167E-01    0.624E-01
DAV:   6    -0.451218730519E+04   -0.83288E-02   -0.45067E-02  3476   0.151E-01    0.909E-01
DAV:   7    -0.451218640047E+04    0.90472E-03   -0.10270E-01  3476   0.157E-01    0.840E-01
DAV:   8    -0.451218070074E+04    0.56997E-02   -0.62479E-02  3372   0.126E-01    0.506E-01
DAV:   9    -0.451217951992E+04    0.11808E-02   -0.14636E-02  3252   0.686E-02    0.188E-01
DAV:  10    -0.451218006272E+04   -0.54280E-03   -0.27277E-03  3364   0.382E-02    0.165E-01
DAV:  11    -0.451218005585E+04    0.68693E-05   -0.25733E-03  3372   0.287E-02    0.151E-01
DAV:  12    -0.451217984841E+04    0.20743E-03   -0.15372E-03  3364   0.217E-02    0.642E-02
DAV:  13    -0.451217996666E+04   -0.11825E-03   -0.53356E-04  3380   0.154E-02    0.759E-02
DAV:  14    -0.451217994875E+04    0.17910E-04   -0.35423E-04  3148   0.124E-02    0.483E-02
DAV:  15    -0.451217995786E+04   -0.91077E-05   -0.12171E-04  2436   0.856E-03    0.294E-02
DAV:  16    -0.451217999841E+04   -0.40554E-04   -0.99400E-05  2292   0.689E-03    0.363E-02
DAV:  17    -0.451217999901E+04   -0.60268E-06   -0.72159E-05  2228   0.576E-03
  72 F= -.45517363E+04 E0= -.45510882E+04  d E =-.261915E-01
 trial-energy change:   -0.026192  1 .order   -0.025829   -0.033064   -0.018594
 step:   0.7163(harm=  0.8228)  dis= 0.04848  next Energy= -4551.745821 (dE=-0.357E-01)
 bond charge predicted
       N       E                     dE             d eps       ncg     rms          rms(c)
DAV:   1    -0.451213448351E+04    0.45515E-01   -0.30241E+01  3038   0.480E+00    0.104E+00
DAV:   2    -0.451222078643E+04   -0.86303E-01   -0.79229E-01  3244   0.679E-01    0.163E+00
DAV:   3    -0.451220464247E+04    0.16144E-01   -0.27435E-01  3468   0.330E-01    0.144E+00
DAV:   4    -0.451219838224E+04    0.62602E-02   -0.11983E-01  3436   0.227E-01    0.117E+00
DAV:   5    -0.451218875413E+04    0.96281E-02   -0.54779E-02  3356   0.163E-01    0.611E-01
DAV:   6    -0.451219732320E+04   -0.85691E-02   -0.47308E-02  3556   0.150E-01    0.915E-01
DAV:   7    -0.451219542310E+04    0.19001E-02   -0.98464E-02  3428   0.155E-01    0.802E-01
DAV:   8    -0.451219056607E+04    0.48570E-02   -0.59080E-02  3388   0.122E-01    0.507E-01
DAV:   9    -0.451218925714E+04    0.13089E-02   -0.15548E-02  3308   0.666E-02    0.184E-01
DAV:  10    -0.451218982369E+04   -0.56655E-03   -0.25763E-03  3284   0.376E-02    0.161E-01
DAV:  11    -0.451218980662E+04    0.17073E-04   -0.24130E-03  3348   0.284E-02    0.147E-01
DAV:  12    -0.451218961750E+04    0.18911E-03   -0.15037E-03  3388   0.213E-02    0.647E-02
DAV:  13    -0.451218973234E+04   -0.11484E-03   -0.56816E-04  3396   0.154E-02    0.768E-02
DAV:  14    -0.451218971198E+04    0.20359E-04   -0.35065E-04  3084   0.122E-02    0.469E-02
DAV:  15    -0.451218972528E+04   -0.13303E-04   -0.12511E-04  2356   0.845E-03    0.302E-02
DAV:  16    -0.451218976414E+04   -0.38862E-04   -0.10607E-04  2268   0.698E-03    0.359E-02
DAV:  17    -0.451218976656E+04   -0.24203E-05   -0.70998E-05  2228   0.574E-03
  73 F= -.45517477E+04 E0= -.45510996E+04  d E =-.375804E-01
 curvature:  -8.14 expect dE=-0.795E+00 dE for cont linesearch -0.475E-03
 trial: gam= 1.27188 g(F)=  0.976E-01 g(S)=  0.000E+00 ort = 0.106E-01 (trialstep = 0.256E+00)
 search vector abs. value=  0.323E+01
 bond charge predicted
       N       E                     dE             d eps       ncg     rms          rms(c)
DAV:   1    -0.451216611435E+04    0.23650E-01   -0.25848E+01  3038   0.443E+00    0.963E-01
DAV:   2    -0.451224699394E+04   -0.80880E-01   -0.72974E-01  3276   0.632E-01    0.175E+00
DAV:   3    -0.451222280112E+04    0.24193E-01   -0.36347E-01  3412   0.307E-01    0.132E+00
DAV:   4    -0.451222234501E+04    0.45610E-03   -0.19482E-01  3420   0.210E-01    0.112E+00
DAV:   5    -0.451221373810E+04    0.86069E-02   -0.10544E-01  3404   0.165E-01    0.697E-01
DAV:   6    -0.451221577695E+04   -0.20388E-02   -0.60241E-02  3484   0.129E-01    0.681E-01
DAV:   7    -0.451222067573E+04   -0.48988E-02   -0.70453E-02  3580   0.136E-01    0.788E-01
DAV:   8    -0.451221419050E+04    0.64852E-02   -0.61968E-02  3388   0.123E-01    0.477E-01
DAV:   9    -0.451221296188E+04    0.12286E-02   -0.82904E-03  3324   0.666E-02    0.186E-01
DAV:  10    -0.451221333874E+04   -0.37686E-03   -0.22439E-03  3332   0.335E-02    0.128E-01
DAV:  11    -0.451221346335E+04   -0.12461E-03   -0.14112E-03  3308   0.263E-02    0.139E-01
DAV:  12    -0.451221325762E+04    0.20573E-03   -0.97166E-04  3356   0.199E-02    0.569E-02
DAV:  13    -0.451221335496E+04   -0.97343E-04   -0.31160E-04  3316   0.134E-02    0.666E-02
DAV:  14    -0.451221335745E+04   -0.24855E-05   -0.18850E-04  2956   0.107E-02    0.455E-02
DAV:  15    -0.451221336772E+04   -0.10272E-04   -0.93621E-05  2324   0.746E-03    0.266E-02
DAV:  16    -0.451221339823E+04   -0.30514E-04   -0.63499E-05  2252   0.608E-03    0.296E-02
DAV:  17    -0.451221341365E+04   -0.15416E-04   -0.39302E-05  2236   0.485E-03    0.184E-02
DAV:  18    -0.451221342530E+04   -0.11645E-04   -0.19068E-05  2212   0.341E-03    0.921E-03
DAV:  19    -0.451221344304E+04   -0.17745E-04   -0.10774E-05  2188   0.222E-03    0.103E-02
DAV:  20    -0.451221344952E+04   -0.64769E-05   -0.46252E-06  2188   0.149E-03
  74 F= -.45517729E+04 E0= -.45511248E+04  d E =-.251909E-01
 trial-energy change:   -0.025191  1 .order   -0.025036   -0.028481   -0.021592
 step:   0.8184(harm=  1.0597)  dis= 0.07651  next Energy= -4551.798148 (dE=-0.505E-01)
 bond charge predicted
       N       E                     dE             d eps       ncg     rms          rms(c)
DAV:   1    -0.451200986303E+04    0.20358E+00   -0.12414E+02  3038   0.969E+00    0.213E+00
DAV:   2    -0.451239873701E+04   -0.38887E+00   -0.33828E+00  3260   0.139E+00    0.367E+00
DAV:   3    -0.451230432155E+04    0.94415E-01   -0.10559E+00  3404   0.684E-01    0.294E+00
DAV:   4    -0.451228626536E+04    0.18056E-01   -0.49136E-01  3468   0.471E-01    0.247E+00
DAV:   5    -0.451224434079E+04    0.41925E-01   -0.32371E-01  3500   0.362E-01    0.152E+00
DAV:   6    -0.451225140193E+04   -0.70611E-02   -0.18579E-01  3516   0.281E-01    0.145E+00
DAV:   7    -0.451227347030E+04   -0.22068E-01   -0.31567E-01  3580   0.293E-01    0.168E+00
DAV:   8    -0.451224456858E+04    0.28902E-01   -0.27326E-01  3468   0.261E-01    0.101E+00
DAV:   9    -0.451223881496E+04    0.57536E-02   -0.55018E-02  3396   0.147E-01    0.443E-01
DAV:  10    -0.451224004343E+04   -0.12285E-02   -0.12795E-02  3252   0.789E-02    0.298E-01
DAV:  11    -0.451224048144E+04   -0.43801E-03   -0.73248E-03  3340   0.602E-02    0.300E-01
DAV:  12    -0.451223956634E+04    0.91510E-03   -0.48967E-03  3364   0.436E-02    0.130E-01
DAV:  13    -0.451224000153E+04   -0.43519E-03   -0.18118E-03  3460   0.305E-02    0.159E-01
DAV:  14    -0.451223989688E+04    0.10465E-03   -0.96153E-04  3444   0.241E-02    0.979E-02
DAV:  15    -0.451223995881E+04   -0.61931E-04   -0.43824E-04  3452   0.166E-02    0.645E-02
DAV:  16    -0.451224008244E+04   -0.12364E-03   -0.30234E-04  3260   0.137E-02    0.672E-02
