unknown system                          
            1
    27.179300    0.000000    0.000000
    -0.066903   27.147818    0.000000
     0.000000    0.014821   27.131096
   O    B    C    H    Mg
   144    48   300    96    48
Direct configuration=     1
   0.81219197  0.75157818  0.27379331
   0.33759581  0.23254377  0.81341635
   0.67154241  0.27463794  0.80185810
   0.17412648  0.76485192  0.29729564
   0.16828735  0.24851369  0.19323224
   0.67229692  0.74483682  0.69914066
   0.31768989  0.74874549  0.71029774
   0.82719798  0.24709346  0.20191217
   0.30111306  0.82863334  0.74341947
   0.81106471  0.32405526  0.24268904
   0.79264208  0.67683194  0.23024924
   0.30472467  0.17445014  0.75616076
   0.19191225  0.17214494  0.22941472
   0.67871671  0.66397437  0.73567793
   0.69642897  0.34024634  0.74919147
   0.21270902  0.82587401  0.24687260
   0.73502596  0.32885783  0.82854210
   0.24567746  0.80607012  0.32659558
   0.26715369  0.80566890  0.66604191
   0.76620037  0.30213868  0.17091778
   0.24749127  0.21396470  0.17569682
   0.73166475  0.68733570  0.66996561
   0.74064624  0.70514407  0.29492422
   0.26027330  0.19219830  0.82936727
   0.99013728  0.06241356  0.55095761
   0.49683091  0.58666200  0.06767322
   0.51912734  0.90898975  0.08101823
   0.01298080  0.42083729  0.55944360
   0.47853849  0.42033981  0.45177636
   0.98487807  0.92975213  0.94450358
   0.99126217  0.55850011  0.96426258
   0.52876769  0.07149415  0.44336096
   0.07776831  0.54575544  0.00038735
   0.57256570  0.02402381  0.50287469
   0.91847940  0.04482308  0.50391697
   0.42706131  0.56811975  0.01692243
   0.40657006  0.44070768  0.49719225
   0.91885626  0.96121551  0.99281387
   0.57509753  0.93514030  0.01786732
   0.09456894  0.42485498  0.52578067
   0.55418168  0.99013416  0.08208576
   0.07064805  0.47808571  0.59190353
   0.05460101  0.50289430  0.92681733
   0.55336921  0.98978746  0.42355291
   0.42809231  0.48580976  0.42346298
   0.94430882  0.00257489  0.91851041
   0.93041751  0.00603183  0.58248972
   0.45039043  0.51242870  0.08044252
   0.95754918  0.65329062  0.13960186
   0.85974679  0.65815964  0.14650608
   0.42598446  0.15023657  0.62115858
   0.37812546  0.12899119  0.70259410
   0.62282196  0.19769061  0.75190393
   0.54090193  0.17767731  0.70356483
   0.03854127  0.68778844  0.20084782
   0.12590758  0.69592873  0.24146400
   0.08150917  0.15662124  0.37956376
   0.12523969  0.13364165  0.29612972
   0.62374535  0.81420230  0.76861682
   0.53153185  0.82444807  0.80331207
   0.43399196  0.84840051  0.88260069
   0.35216543  0.85685100  0.82467507
   0.86152056  0.34336942  0.32761374
   0.94688122  0.33992215  0.37368002
   0.20168172  0.87680772  0.62834433
   0.12354348  0.92903709  0.65093274
   0.70877431  0.37645059  0.13738291
   0.62417771  0.41527408  0.15924088
   0.70487769  0.62873687  0.35070693
   0.63418499  0.56310343  0.34899240
   0.25196994  0.11763819  0.68884933
   0.21020490  0.03111241  0.67824168
   0.25097677  0.13176627  0.30711320
   0.29430665  0.04583032  0.31990284
   0.78934286  0.61738049  0.63049395
   0.87560597  0.58610776  0.66128145
   0.72478091  0.44719698  0.71050991
   0.80833257  0.48608918  0.68040430
   0.36418998  0.95913482  0.35321569
   0.31984698  0.86965946  0.35957991
   0.64619749  0.14021210  0.92215623
   0.62764548  0.22217527  0.87490732
   0.13047172  0.70428783  0.37067239
   0.14896741  0.62549963  0.42415021
   0.18899606  0.75070394  0.62374721
   0.17819076  0.71511712  0.53352499
   0.69294531  0.25255366  0.11934768
   0.67227265  0.20597661  0.03664747
   0.16138438  0.38180384  0.04848030
   0.14168918  0.32556950  0.12848831
   0.82223395  0.78571875  0.53362466
   0.80796466  0.74435187  0.62101464
   0.67155111  0.79597655  0.44728445
   0.67469676  0.76962788  0.35672515
   0.20489272  0.23303398  0.90476972
   0.19029599  0.30143371  0.97249478
   0.06030263  0.11882121  0.49972871
   0.06613075  0.20935174  0.46547002
   0.52969055  0.69941974  0.03810133
   0.57022688  0.72843296  0.95189647
   0.62008747  0.86283629  0.97261898
   0.58853212  0.85027705  0.88413074
   0.93958298  0.27180242  0.45717804
   0.95405913  0.34646825  0.51899147
   0.54695518  0.36279906  0.49746106
   0.56026527  0.27536592  0.53736099
   0.06928890  0.79573456  0.03933495
   0.05304143  0.88160853  0.00558324
   0.93363829  0.61659863  0.02636377
   0.92641117  0.70696064  0.05246786
   0.44467206  0.20877837  0.53515567
   0.45024934  0.11901603  0.49759495
   0.11171424  0.42467980  0.90202471
   0.19877693  0.38087236  0.90092912
   0.70310667  0.88259866  0.39307248
   0.60625674  0.89376393  0.40463710
   0.86034713  0.99471759  0.43778937
   0.79604237  0.92019810  0.41769159
   0.36247550  0.52029576  0.94642365
   0.29837870  0.44528698  0.92519315
   0.29745076  0.46660412  0.52448592
   0.26732176  0.55119642  0.56672084
   0.79592095  0.12823924  0.89477398
   0.87802694  0.07245712  0.88429150
   0.70289846  0.05241706  0.91987885
   0.64237344  0.97998097  0.94300010
   0.16288028  0.62796375  0.58834670
   0.14105353  0.54068848  0.62462398
   0.44601614  0.07573650  0.22044931
   0.52497248  0.04669056  0.16544234
   0.96425082  0.57761129  0.71846292
   0.01478878  0.56143291  0.63654186
   0.95175824  0.61139278  0.88903965
   0.88015401  0.60330178  0.82381748
   0.38416625  0.09840120  0.32664716
   0.46858720  0.11737934  0.37104977
   0.53582097  0.37964900  0.37855373
   0.61641711  0.39662162  0.32831362
   0.12656524  0.90757678  0.81928326
   0.04939253  0.89035923  0.87411165
   0.12154799  0.08927607  0.67428292
   0.04032404  0.11088866  0.62685589
   0.50821718  0.44004789  0.13515573
   0.54719187  0.42830242  0.22620646
   0.82203879  0.71847008  0.23570945
   0.34287343  0.20499883  0.77051320
   0.66742644  0.29858654  0.75732196
   0.17707106  0.78979943  0.25293581
   0.15919033  0.21085874  0.22658635
   0.65778040  0.71131477  0.73479238
   0.32739887  0.78537181  0.74570063
   0.83791454  0.28097679  0.23963487
   0.27035533  0.83898245  0.70427844
   0.77397618  0.33488213  0.20941593
   0.75432328  0.66792507  0.26303437
   0.26438906  0.16608333  0.78574469
   0.23806758  0.17641794  0.20884295
   0.71678642  0.65221061  0.70354154
   0.73045865  0.35550562  0.78429613
   0.24605269  0.83561627  0.28501937
   0.70501611  0.28818157  0.83765137
   0.20945456  0.77067001  0.33335277
   0.28606735  0.75877216  0.67133427
   0.79015275  0.25753817  0.16749704
   0.21110225  0.24899032  0.16566212
   0.70943672  0.73292186  0.66634185
   0.77210543  0.74376683  0.30467905
   0.29500482  0.22740394  0.84188496
   0.96227764  0.07006680  0.50927315
   0.46594584  0.59936444  0.02893105
   0.54653761  0.89853069  0.03946175
   0.04753054  0.40348407  0.52611279
   0.44930480  0.41261718  0.49265533
   0.95677253  0.92733044  0.98687642
   0.03325795  0.57106236  0.99913643
   0.54475229  0.06527579  0.49130530
   0.08749921  0.50955134  0.96516320
   0.58038702  0.98052790  0.46690984
   0.90608901  0.00792190  0.53689558
   0.41984587  0.52376380  0.04098837
   0.39583919  0.47751216  0.46296314
   0.91152764  0.99844431  0.95763604
   0.58238431  0.98030573  0.04054104
   0.10447679  0.46452697  0.55649037
   0.52059351  0.95683287  0.10120150
   0.02353342  0.45912461  0.59170597
   0.01163896  0.52988301  0.92430883
   0.52804329  0.03241772  0.41083545
   0.46913354  0.45592513  0.41688079
   0.98072084  0.96749656  0.91083314
   0.97300316  0.03367127  0.58940505
   0.48945425  0.54244763  0.09308367
   0.00521664  0.75295337  0.11795777
   0.50242607  0.23859892  0.62126792
   0.00611204  0.24324336  0.38038174
   0.49928468  0.75815890  0.87849696
   0.12579568  0.99068224  0.74381319
   0.62363694  0.48911905  0.25902178
   0.37457947  0.01027544  0.25571410
   0.87947211  0.51511312  0.74982697
   0.73632489  0.12946479  0.98276014
   0.23702449  0.62769464  0.49940971
   0.26014609  0.37959673  0.98947921
   0.75452630  0.85711368  0.49061497
   0.94391333  0.77591460  0.18616947
   0.96274939  0.74099846  0.15387005
   0.93846099  0.69439096  0.15428524
   0.88568724  0.69226532  0.16823257
   0.86886486  0.72680166  0.20413019
   0.89994570  0.76740197  0.21277309
   0.45257718  0.25900452  0.69593536
   0.45996251  0.22566425  0.65744631
   0.42958209  0.18266036  0.65688642
   0.39803272  0.17260920  0.70027205
   0.38817181  0.21003183  0.73591387
   0.41680332  0.25260191  0.73297040
   0.61149463  0.31032335  0.68158260
   0.62913632  0.27978753  0.71891197
   0.60682769  0.23220963  0.72253677
   0.56281279  0.21952096  0.69279601
   0.54728857  0.25195742  0.65442915
   0.57280009  0.29641696  0.64988637
   0.07973750  0.80405838  0.14810491
   0.05089363  0.76161606  0.15103330
   0.06444834  0.72624024  0.18787967
   0.11136627  0.73298561  0.21485255
   0.13754964  0.77848149  0.21290543
   0.12091169  0.81284716  0.17874308
   0.05759539  0.26760027  0.30732669
   0.04934396  0.23300031  0.34469840
   0.07782207  0.18905575  0.34365309
   0.10701456  0.17784944  0.29929945
   0.11683341  0.21559747  0.26411310
   0.09201304  0.26021271  0.26955370
   0.59449411  0.68795638  0.79986342
   0.61687894  0.72487407  0.77180965
   0.59949681  0.77398539  0.77950036
   0.55266587  0.78126217  0.80601980
   0.53791994  0.74455221  0.84017351
   0.55850440  0.69789062  0.83577292
   0.43750728  0.73117133  0.81516700
   0.45137209  0.76785394  0.84925146
   0.42261442  0.81078832  0.85186659
   0.37952856  0.81571289  0.82027859
   0.36748549  0.77861489  0.78553212
   0.39729016  0.73643759  0.78428316
   0.91184509  0.23155504  0.27431511
   0.88002333  0.27199250  0.27779847
   0.89010239  0.30606565  0.31664409
   0.93521904  0.30101949  0.34699901
   0.96223447  0.25631511  0.34574657
   0.95038617  0.22341006  0.30774166
   0.23548925  0.91087503  0.75239050
   0.23687414  0.88440910  0.70851217
   0.20071194  0.89569711  0.67229546
   0.15865749  0.92822825  0.68405321
   0.16004493  0.95522935  0.72894697
   0.19889581  0.94624415  0.76127907
   0.73538891  0.40320933  0.26461361
   0.73916956  0.37921147  0.21904106
   0.70343609  0.39155364  0.18297060
   0.65926029  0.41927477  0.19575604
   0.65769508  0.44545508  0.24102097
   0.69747570  0.43650521  0.27367478
   0.72309532  0.58455796  0.22694392
   0.72621144  0.61799676  0.26579043
   0.69931601  0.60534924  0.30929769
   0.66212101  0.56488912  0.30954670
   0.66025298  0.53242165  0.26838251
   0.69271376  0.54257877  0.22936930
   0.19170698  0.10870195  0.80688387
   0.22582944  0.12597217  0.77259281
   0.22689377  0.10150771  0.72625739
   0.19901823  0.05498712  0.71814604
   0.16190105  0.04125554  0.75373578
   0.16018117  0.06836339  0.79706900
   0.30994248  0.11814858  0.18856505
   0.27741408  0.13745525  0.22285827
   0.27669395  0.11517243  0.27041514
   0.30514286  0.06959191  0.27996656
   0.34105829  0.05415489  0.24445987
   0.34136678  0.07808110  0.19935989
   0.75669590  0.58342273  0.75730932
   0.74989164  0.60489879  0.70894490
   0.79137926  0.60171896  0.67582525
   0.83900401  0.58127302  0.69229750
   0.84115414  0.55598879  0.73781676
   0.80026295  0.55961980  0.77008877
   0.80691645  0.40453345  0.80679072
   0.76685301  0.39886008  0.77455321
   0.76436815  0.43388390  0.73483223
   0.80904775  0.46133501  0.72233296
   0.84594527  0.46933356  0.75862341
   0.84370202  0.44090243  0.80134695
   0.30675903  0.95176447  0.23145108
   0.34015799  0.96695180  0.26794237
   0.33932796  0.94251141  0.31374772
   0.31256684  0.89625738  0.31838977
   0.28077242  0.88042503  0.28010838
   0.27748915  0.91016224  0.23771601
   0.75862932  0.20848479  0.94551002
   0.72496920  0.17007023  0.95145029
   0.68066406  0.17352651  0.92379498
   0.67136041  0.21833664  0.89331169
   0.70979878  0.25334164  0.88334606
   0.75226374  0.24774458  0.91159656
   0.25493066  0.73316032  0.40709451
   0.21214387  0.73598488  0.37887801
   0.17402707  0.70184636  0.39044497
   0.18281982  0.66002443  0.42455175
   0.22593105  0.66115943  0.45466975
   0.26059795  0.69806676  0.44479531
   0.30479431  0.68726420  0.61050717
   0.27183289  0.72081081  0.63049447
   0.22521165  0.72493233  0.60642989
   0.21591052  0.69995356  0.55840564
   0.24942695  0.66215147  0.54288228
   0.29330453  0.65825953  0.56860704
   0.80705782  0.18679295  0.10347430
   0.77529709  0.22127737  0.12448411
   0.72796772  0.22472076  0.10169998
   0.71531095  0.19628200  0.05665500
   0.74889389  0.16027886  0.03799580
   0.79447624  0.15788289  0.06193611
   0.27813951  0.31581094  0.06112115
   0.24474181  0.35116739  0.04372108
   0.19752270  0.35269772  0.06534440
   0.18615812  0.32109351  0.10726539
   0.22109149  0.28660034  0.12432914
   0.26656943  0.28430674  0.09975125
   0.69758968  0.82707337  0.56015769
   0.74270905  0.82565322  0.53603770
   0.77955909  0.79325299  0.55466908
   0.77051523  0.76731584  0.60151828
   0.72316927  0.76827507  0.62368321
   0.68795481  0.79908359  0.60282808
   0.80441684  0.81505824  0.42320513
   0.75971350  0.82076745  0.44761952
   0.71820945  0.79613290  0.42757627
   0.72068295  0.77768526  0.37815203
   0.76578601  0.77318151  0.35317647
   0.80765531  0.79134233  0.37786229
   0.32160761  0.29795623  0.89802439
   0.28632111  0.26258868  0.88582744
   0.24151174  0.26327838  0.91303456
   0.23300631  0.30188163  0.95056602
   0.26992565  0.33880362  0.95899978
   0.31394857  0.33465191  0.93388950
   0.94357196  0.12732575  0.43688131
   0.97738018  0.10927631  0.47085351
   0.02329608  0.13429640  0.47397471
   0.02978964  0.18288733  0.44949519
   0.99500085  0.19750697  0.41220405
   0.95282967  0.16928855  0.40732683
   0.44410235  0.64720500  0.95189228
   0.47415226  0.64414972  0.99375941
   0.51111155  0.68174494  0.99723918
   0.52741102  0.70585688  0.95125445
   0.49156844  0.71339311  0.91362494
   0.44955402  0.68413339  0.91558726
   0.49466404  0.82554818  0.00910831
   0.54125902  0.85001327  0.01569134
   0.57457396  0.84741594  0.96760374
   0.55802274  0.83217568  0.91860523
   0.51575100  0.80106343  0.91545395
   0.48491803  0.80077231  0.95813158
   0.06066761  0.31212559  0.41679988
   0.01748881  0.28496060  0.41698059
   0.98175637  0.29524929  0.45405607
   0.99040337  0.33562383  0.48922860
   0.03557301  0.36239927  0.48832631
   0.06933940  0.34959959  0.45161273
   0.43317500  0.35197393  0.56561624
   0.46455368  0.37101809  0.52954011
   0.51099964  0.34650840  0.52454169
   0.52067484  0.29944628  0.55059157
   0.48832696  0.28363802  0.58878676
   0.44517263  0.31059158  0.59493900
   0.94709578  0.82246526  0.08684411
   0.99264405  0.79866193  0.08565747
   0.02716150  0.81653454  0.05000268
   0.01647997  0.86304478  0.02308473
   0.96884899  0.88515798  0.02442686
   0.93552338  0.86387028  0.05736986
   0.06466123  0.64245002  0.05224407
   0.02450510  0.61691997  0.03174223
   0.97836197  0.63978363  0.03590005
   0.97344547  0.68891406  0.05459862
   0.01325128  0.71003964  0.08136915
   0.05872776  0.68672706  0.07748226
   0.55605458  0.16572226  0.59356261
   0.51466942  0.19470794  0.58787497
   0.48106153  0.18143602  0.54957912
   0.48726309  0.13359213  0.52417373
   0.53216507  0.10669393  0.52880819
   0.56534448  0.12392289  0.56376891
   0.17114788  0.48788991  0.00425488
   0.13476438  0.47835197  0.96873344
   0.14353973  0.43877144  0.93557661
   0.19010589  0.41085410  0.93788699
   0.22037087  0.41641223  0.98020463
   0.21216727  0.45731583  0.01025327
   0.69844521  0.92732305  0.51800746
   0.71352072  0.89513505  0.48094203
   0.68730431  0.89783338  0.43563173
   0.63540952  0.91437012  0.43703754
   0.62254004  0.95046871  0.47324664
   0.65575663  0.95597619  0.51282860
   0.85222787  0.93399186  0.55852757
   0.86784550  0.96819629  0.52283867
   0.84918545  0.96291593  0.47430400
   0.81499790  0.92328457  0.46322380
   0.79905303  0.89086529  0.50072685
   0.81821828  0.89708205  0.54822961
   0.36772843  0.44846750  0.06074073
   0.37953923  0.48575104  0.02672830
   0.35516223  0.48500681  0.98061184
   0.32014841  0.44611152  0.96976870
   0.30593602  0.41214875  0.00677293
   0.33080601  0.41373829  0.05188234
   0.34793664  0.55617533  0.44064058
   0.35118295  0.51322108  0.46932190
   0.31348811  0.50825517  0.50601009
   0.28910640  0.55333442  0.52340357
   0.28182247  0.59282501  0.48937361
   0.31112590  0.59252372  0.44727699
   0.79532844  0.06082674  0.01154226
   0.78141202  0.09667985  0.97680129
   0.80830336  0.09835998  0.93227714
   0.85206874  0.06742633  0.92610595
   0.86660760  0.03358034  0.96317096
   0.83626512  0.03056786  0.00509566
   0.66829075  0.09180170  0.04364324
   0.69382838  0.09211054  0.99910869
   0.68265233  0.05424134  0.96424381
   0.64800732  0.01614246  0.97775393
   0.62098205  0.01798032  0.02207804
   0.63204915  0.05713738  0.05427423
   0.19200322  0.54795444  0.48287938
   0.19522974  0.59049165  0.51337159
   0.16957514  0.59025672  0.55876916
   0.15237343  0.54249294  0.57803846
   0.14845179  0.50000955  0.54659000
   0.16823755  0.50491766  0.49727988
   0.40718483  0.95160771  0.18676872
   0.40747383  0.99707851  0.21088584
   0.44479728  0.03127077  0.19849228
   0.48528326  0.01698743  0.16707733
   0.48310370  0.97136371  0.14157406
   0.44306692  0.94006021  0.15187240
   0.91293648  0.46008625  0.68112596
   0.91527048  0.50401290  0.70704959
   0.95413526  0.53742308  0.69440607
   0.98595902  0.52590779  0.65122539
   0.98424294  0.47854421  0.62840037
   0.94655523  0.44725212  0.64368448
   0.97753419  0.48795319  0.84625482
   0.97880973  0.52838270  0.87786613
   0.94830843  0.56923567  0.86611986
   0.91081912  0.56608168  0.82680428
   0.91151284  0.52403449  0.79559244
   0.94550655  0.48674094  0.80577737
   0.45013659  0.98428774  0.30277968
   0.41367424  0.02000716  0.29623855
   0.41797849  0.06421348  0.32377111
   0.46303640  0.07306880  0.35318416
   0.49522442  0.03303951  0.36431025
   0.48802576  0.98944632  0.33751332
   0.51375736  0.50615833  0.34771321
   0.50683188  0.46259494  0.37368165
   0.54079638  0.42389503  0.36184735
   0.58478573  0.43259019  0.32958995
   0.58840989  0.47762016  0.30302798
   0.55245697  0.51272999  0.31320145
   0.05628113  0.02073082  0.80114533
   0.09328400  0.98624368  0.79032423
   0.09343264  0.94276595  0.81985499
   0.05182456  0.93418921  0.85486503
   0.01769701  0.97219539  0.86697186
   0.02114638  0.01507374  0.83877006
   0.04739166  0.97946358  0.69815113
   0.08723811  0.01162508  0.70386176
   0.08651343  0.05581427  0.67599135
   0.04270276  0.06677722  0.64538931
   0.00627808  0.02984241  0.63583180
   0.00919458  0.98709740  0.66407648
   0.55658512  0.56243303  0.15575330
   0.52387348  0.52790043  0.13631156
   0.52446823  0.47972075  0.15769766
   0.55119090  0.47147463  0.20433452
   0.58801754  0.50582396  0.21810363
   0.58948877  0.55129551  0.19432835
   0.96312268  0.81099583  0.19051798
   0.88799652  0.79518072  0.23940993
   0.47568966  0.29192745  0.69695955
   0.41142246  0.28193589  0.75995528
   0.62767840  0.34697168  0.67731984
   0.56163145  0.32261737  0.62173013
   0.06978642  0.83268343  0.12196894
   0.13994321  0.84823004  0.17550157
   0.03546557  0.30109675  0.30717689
   0.09930996  0.28953792  0.24292853
   0.60715942  0.65021527  0.79461805
   0.54714995  0.66824681  0.86049211
   0.46004044  0.69819197  0.81202815
   0.38891382  0.70817631  0.75693318
   0.90578196  0.20474867  0.24486615
   0.97268313  0.19034475  0.30336749
   0.26327432  0.90312549  0.78042768
   0.20012931  0.96696497  0.79565683
   0.76255341  0.39573980  0.29336676
   0.69755385  0.45665768  0.30844912
   0.74400212  0.59153097  0.19324686
   0.69311119  0.51705988  0.19832787
   0.18918516  0.12724655  0.84261787
   0.13367487  0.05766005  0.82525720
   0.31115355  0.13430346  0.15165919
   0.36629678  0.06525222  0.17079188
   0.72879851  0.58991614  0.78549602
   0.80370106  0.54360388  0.80677872
   0.80807493  0.38111339  0.83952480
   0.86972106  0.44705936  0.83134789
   0.30404274  0.97324553  0.19753089
   0.25140719  0.89970509  0.20894692
   0.79238738  0.20768224  0.96732373
   0.78196763  0.27471172  0.90745779
   0.28447823  0.75947494  0.39951949
   0.29338747  0.70013409  0.46795532
   0.34090306  0.68285283  0.62772375
   0.32079268  0.63206704  0.55600160
   0.84390302  0.18236321  0.11898750
   0.82259290  0.13319021  0.04770964
   0.31368776  0.31213530  0.04285101
   0.29293107  0.25637347  0.11143263
   0.66852664  0.85029200  0.54556137
   0.65156642  0.80139313  0.61977257
   0.83679278  0.83208137  0.43986118
   0.84341424  0.78848939  0.35981534
   0.35640183  0.29767324  0.87787688
   0.34306230  0.36134139  0.94103693
   0.90835244  0.10804458  0.43338138
   0.92472909  0.18073996  0.38116896
   0.41378028  0.62091339  0.94846448
   0.42016167  0.69010827  0.88907936
   0.46683715  0.82709600  0.03085938
   0.45121582  0.77925457  0.95543071
   0.08918590  0.30350890  0.38988732
   0.10422516  0.36962840  0.44973200
   0.39748531  0.36958718  0.57116213
   0.41852280  0.29821957  0.62231804
   0.91821630  0.80805089  0.11062748
   0.89858200  0.87940872  0.06069212
   0.10120761  0.62606425  0.04912588
   0.09016223  0.70316997  0.09612959
   0.58336898  0.17567632  0.62113027
   0.60042037  0.10488563  0.56839990
   0.16592728  0.51868669  0.02972416
   0.23652318  0.46308403  0.04174490
   0.72040545  0.93001172  0.55160168
   0.64643940  0.97467203  0.54213684
   0.86734380  0.93672825  0.59568770
   0.80556249  0.87336891  0.57796733
   0.38767867  0.44738320  0.09572812
   0.32060547  0.38813487  0.08102986
   0.37382808  0.56115711  0.41021910
   0.30539971  0.62051730  0.41904577
   0.77305130  0.05659092  0.04472494
   0.84545378  0.01071914  0.03332846
   0.67684001  0.11955838  0.07112541
   0.61196242  0.05938746  0.08894788
   0.21006719  0.54936344  0.44703701
   0.16368803  0.47451610  0.47132820
   0.37910102  0.92449105  0.19568372
   0.44055480  0.90491372  0.13240654
   0.88435549  0.43341442  0.69009472
   0.94302536  0.41124150  0.62601483
   0.00215255  0.45689021  0.85309487
   0.94658315  0.45519836  0.78086984
   0.44825749  0.95063567  0.28075119
   0.51325533  0.95877423  0.34417625
   0.48826267  0.53672022  0.35345984
   0.55426517  0.54781231  0.29372647
   0.05451920  0.05390904  0.77852810
   0.99494445  0.04479238  0.84563913
   0.04661053  0.94610773  0.72059544
   0.98166667  0.95818457  0.65889405
   0.55752769  0.59912720  0.13922176
   0.61626818  0.57903429  0.20535167
   0.90508261  0.64008032  0.09129738
   0.37214022  0.10128207  0.63633945
   0.56793326  0.15278329  0.76669006
   0.06902172  0.65640340  0.26116477
   0.13236306  0.10628306  0.36236973
   0.59163983  0.86158970  0.81423539
   0.37945477  0.88999294  0.87852048
   0.88200694  0.36653964  0.39158088
   0.13446932  0.87530714  0.60180703
   0.64766912  0.36747455  0.10455549
   0.64481342  0.62311681  0.39045942
   0.26937536  0.06290925  0.64531832
   0.23460587  0.07571350  0.35084403
   0.85648731  0.63144200  0.60805737
   0.74667105  0.51778930  0.69758730
   0.37250586  0.90223749  0.39094055
   0.59803155  0.15590527  0.86984430
   0.10185210  0.63861873  0.36779318
   0.14691673  0.77225601  0.56851364
   0.64241554  0.26406349  0.06985279
   0.11422700  0.38149201  0.09848631
   0.85634287  0.73151681  0.56851092
   0.65477148  0.72728088  0.41629360
   0.14581944  0.26665314  0.92658176
   0.09910538  0.17598553  0.52250193
   0.55438124  0.76362518  0.01262198
   0.63023833  0.91167572  0.92366192
   0.89554942  0.32125060  0.48636630
   0.59037704  0.30791592  0.47900811
   0.09896304  0.82942547  0.97286068
   0.91033493  0.67440546  0.98410209
   0.41140497  0.17788838  0.47805561
   0.13175100  0.35973551  0.88139550
   0.64872066  0.83543000  0.38456634
   0.81419955  0.97238844  0.38855898
   0.30949381  0.50977910  0.90303151
   0.23378937  0.49000515  0.55129551
   0.85084041  0.12777826  0.85311841
   0.68100362  0.98936882  0.88164464
   0.12439134  0.60710446  0.64688866
   0.51389494  0.08748260  0.22073360
   0.02669003  0.60648496  0.69286009
   0.89102433  0.64883174  0.88086558
   0.40289296  0.14759794  0.37729573
   0.60026585  0.34622319  0.37925263
   0.11487919  0.86092875  0.87496269
   0.10713553  0.13917967  0.62301187
   0.55562733  0.39461942  0.16433110
Direct configuration=     2
   0.81219989  0.75152152  0.27381202
   0.33756676  0.23250097  0.81344032
   0.67161500  0.27460830  0.80187895
   0.17420425  0.76489410  0.29734329
   0.16829995  0.24853025  0.19317828
   0.67237659  0.74466183  0.69918629
   0.31772062  0.74870730  0.71033439
   0.82724474  0.24710191  0.20191597
   0.30111279  0.82868267  0.74338766
   0.81107014  0.32395721  0.24272867
   0.79268114  0.67675574  0.23034850
   0.30477983  0.17444305  0.75618542
   0.19198739  0.17218863  0.22942067
   0.67874929  0.66386261  0.73568779
   0.69639685  0.34026400  0.74922043
   0.21270294  0.82582163  0.24688668
   0.73499354  0.32882256  0.82849801
   0.24567679  0.80604264  0.32660941
   0.26708963  0.80565475  0.66606082
   0.76620161  0.30209570  0.17100181
   0.24750086  0.21395106  0.17565482
   0.73153489  0.68728348  0.66991327
   0.74057211  0.70514880  0.29491366
   0.26032289  0.19220630  0.82939081
   0.99015645  0.06243800  0.55098191
   0.49678710  0.58669614  0.06759831
   0.51890763  0.90992169  0.08153849
   0.01292483  0.42083275  0.55939971
   0.47857221  0.42038117  0.45176896
   0.98504001  0.92944561  0.94464894
   0.99895668  0.55699692  0.96556508
   0.52836817  0.07161285  0.44278404
   0.07655302  0.54618005 -0.00013738
   0.57266021  0.02124937  0.50191593
   0.91853076  0.04477391  0.50382812
   0.42711770  0.56812032  0.01690731
   0.40654257  0.44072398  0.49718117
   0.91890516  0.96110623  0.99287541
   0.57509650  0.93515959  0.01759941
   0.09451651  0.42496608  0.52570794
   0.55432634  0.99028831  0.08211327
   0.07068890  0.47810526  0.59177878
   0.05430557  0.50372609  0.92734359
   0.55377829  0.98769245  0.42393668
   0.42802354  0.48578680  0.42343377
   0.94437772  0.00248954  0.91853077
   0.93050872  0.00598910  0.58247453
   0.45040944  0.51243676  0.08035656
   0.95758765  0.65327403  0.13962653
   0.85963386  0.65820990  0.14650064
   0.42597055  0.15027110  0.62122474
   0.37814999  0.12904894  0.70261578
   0.62277293  0.19776158  0.75189539
   0.54094041  0.17773100  0.70352008
   0.03861440  0.68785124  0.20081662
   0.12588744  0.69589776  0.24144632
   0.08147201  0.15661116  0.37954982
   0.12519648  0.13366154  0.29616183
   0.62372708  0.81424024  0.76846927
   0.53137407  0.82435474  0.80337440
   0.43407382  0.84841754  0.88255478
   0.35217893  0.85687196  0.82472475
   0.86147651  0.34334468  0.32748518
   0.94690208  0.33998219  0.37371407
   0.20162956  0.87684428  0.62824851
   0.12353734  0.92901755  0.65107869
   0.70867928  0.37657648  0.13741538
   0.62423847  0.41523590  0.15922089
   0.70487298  0.62877251  0.35070485
   0.63415296  0.56307501  0.34907244
   0.25191241  0.11764916  0.68888978
   0.21014978  0.03112428  0.67816881
   0.25098082  0.13178162  0.30704995
   0.29430265  0.04583583  0.31997097
   0.78934221  0.61724915  0.63040612
   0.87561107  0.58624036  0.66126326
   0.72443004  0.44739091  0.71091856
   0.80855508  0.48599765  0.68038763
   0.36418459  0.95911069  0.35317983
   0.31980370  0.86968091  0.35959060
   0.64632018  0.14027682  0.92225338
   0.62755506  0.22216300  0.87495999
   0.13049738  0.70433918  0.37058519
   0.14894631  0.62554638  0.42410698
   0.18911159  0.75070365  0.62376060
   0.17815741  0.71516148  0.53354526
   0.69285713  0.25250018  0.11934016
   0.67219508  0.20609612  0.03663697
   0.16123732  0.38176969  0.04850650
   0.14174026  0.32552025  0.12845818
   0.82222289  0.78575197  0.53358017
   0.80796759  0.74433322  0.62094676
   0.67148748  0.79602206  0.44729491
   0.67468757  0.76976385  0.35690425
   0.20491254  0.23305871  0.90473982
   0.19043615  0.30150847  0.97243158
   0.06026411  0.11881261  0.49969316
   0.06609051  0.20932506  0.46548379
   0.52993476  0.69914967  0.03810093
   0.57025826  0.72845938  0.95192878
   0.61905411  0.86214129  0.97282059
   0.58835757  0.85033271  0.88445510
   0.93964277  0.27177453  0.45719866
   0.95396505  0.34642172  0.51899350
   0.54690580  0.36279563  0.49745936
   0.56025470  0.27540389  0.53736424
   0.06850444  0.79641025  0.03873251
   0.06054966  0.88572623  0.00003794
   0.93361252  0.61678445  0.02641599
   0.92641178  0.70677659  0.05264060
   0.44474807  0.20870244  0.53518735
   0.45034728  0.11902871  0.49759827
   0.11164788  0.42475453  0.90201999
   0.19882504  0.38086221  0.90095337
   0.70311826  0.88248385  0.39287604
   0.60630406  0.89376784  0.40478566
   0.85966940  0.99445044  0.43682947
   0.79406528  0.91491934  0.41993740
   0.36252497  0.52026406  0.94640104
   0.29838520  0.44525731  0.92509631
   0.29757693  0.46645570  0.52471069
   0.26731753  0.55123723  0.56676750
   0.79587878  0.12819257  0.89493727
   0.87801530  0.07248257  0.88427727
   0.70258214  0.05130666  0.91972520
   0.64200722  0.97981367  0.94335331
   0.16297500  0.62792889  0.58833811
   0.14099944  0.54071890  0.62466236
   0.44604255  0.07585972  0.22054799
   0.52498938  0.04675323  0.16542844
   0.96430831  0.57754799  0.71843023
   0.01484485  0.56135590  0.63654945
   0.95181099  0.61142241  0.88884507
   0.88018930  0.60332377  0.82382801
   0.38423229  0.09840024  0.32661796
   0.46856254  0.11731720  0.37101846
   0.53582998  0.37962198  0.37849235
   0.61643961  0.39660191  0.32824550
   0.12659087  0.90764351  0.81917163
   0.04937074  0.89035149  0.87429377
   0.12147820  0.08936383  0.67416026
   0.04034045  0.11083499  0.62686923
   0.50814985  0.44012178  0.13512541
   0.54705974  0.42829294  0.22614924
   0.82205752  0.71840198  0.23563017
   0.34284943  0.20499191  0.77050243