       N       E                     dE             d eps       ncg     rms          rms(c)
DAV:   1     0.492115554135E+01    0.49212E+01   -0.10740E+02    16   0.384E+01
DAV:   2    -0.159006219592E+00   -0.50802E+01   -0.50801E+01    32   0.157E+01
DAV:   3    -0.271917245804E+00   -0.11291E+00   -0.99879E-01    16   0.335E+00
DAV:   4    -0.274400321878E+00   -0.24831E-02   -0.24262E-02    16   0.513E-01
DAV:   5    -0.274418798860E+00   -0.18477E-04   -0.18475E-04    32   0.400E-02    0.217E-01
RMM:   6    -0.273589106357E+00    0.82969E-03   -0.53628E-04    16   0.833E-02    0.134E-01
RMM:   7    -0.273016726460E+00    0.57238E-03   -0.18327E-03    16   0.147E-01    0.298E-02
RMM:   8    -0.273490253633E+00   -0.47353E-03   -0.35178E-04    16   0.783E-02    0.773E-03
RMM:   9    -0.273655960982E+00   -0.16571E-03   -0.49980E-05    14   0.293E-02    0.663E-03
RMM:  10    -0.274019658687E+00   -0.36370E-03   -0.63011E-05    15   0.198E-02    0.595E-03
RMM:  11    -0.274117610882E+00   -0.97952E-04   -0.13750E-05    14   0.803E-03
   1 F= -.27571098E+00 E0= -.25034906E+00  d E =-.275711E+00
       N       E                     dE             d eps       ncg     rms          rms(c)
DAV:   1    -0.283022744308E+00   -0.90031E-02   -0.11333E-01    16   0.154E+00    0.108E-02
RMM:   2    -0.283060461550E+00   -0.37717E-04   -0.19010E-04    16   0.914E-02    0.618E-03
RMM:   3    -0.283090547760E+00   -0.30086E-04   -0.23319E-05    14   0.360E-02    0.197E-03
RMM:   4    -0.283106432266E+00   -0.15885E-04   -0.27913E-06    14   0.114E-02    0.969E-04
RMM:   5    -0.283118481502E+00   -0.12049E-04   -0.70785E-07    14   0.558E-03    0.349E-04
RMM:   6    -0.283127559683E+00   -0.90782E-05    0.00000E+00    12   0.258E-03
   2 F= -.28477937E+00 E0= -.26111899E+00  d E =-.906839E-02
       N       E                     dE             d eps       ncg     rms          rms(c)
DAV:   1    -0.312120174440E+00   -0.29002E-01   -0.10187E+00    16   0.461E+00    0.458E-02
RMM:   2    -0.312335542360E+00   -0.21537E-03   -0.21916E-03    16   0.284E-01    0.220E-02
RMM:   3    -0.312383958709E+00   -0.48416E-04   -0.28576E-04    16   0.112E-01    0.709E-03
RMM:   4    -0.312395889529E+00   -0.11931E-04   -0.51676E-05    15   0.441E-02    0.419E-03
RMM:   5    -0.312399214887E+00   -0.33254E-05   -0.72443E-06    13   0.151E-02    0.112E-03
RMM:   6    -0.312402908659E+00   -0.36938E-05   -0.14059E-06    11   0.722E-03
   3 F= -.31424116E+00 E0= -.29551717E+00  d E =-.385302E-01
       N       E                     dE             d eps       ncg     rms          rms(c)
DAV:   1    -0.383697663455E+00   -0.71298E-01   -0.40454E+00    16   0.918E+00    0.107E-01
RMM:   2    -0.384904027225E+00   -0.12064E-02   -0.12279E-02    16   0.631E-01    0.494E-02
RMM:   3    -0.385127244294E+00   -0.22322E-03   -0.14832E-03    16   0.242E-01    0.169E-02
RMM:   4    -0.385198719659E+00   -0.71475E-04   -0.27982E-04    16   0.990E-02    0.911E-03
RMM:   5    -0.385220073279E+00   -0.21354E-04   -0.53849E-05    15   0.434E-02    0.295E-03
RMM:   6    -0.385234552239E+00   -0.14479E-04   -0.79410E-06    14   0.153E-02
   4 F= -.38749517E+00 E0= -.37721022E+00  d E =-.111784E+00
       N       E                     dE             d eps       ncg     rms          rms(c)
DAV:   1    -0.587548084980E+00   -0.20233E+00   -0.15736E+01    16   0.180E+01    0.291E-01
RMM:   2    -0.598327151512E+00   -0.10779E-01   -0.10870E-01    16   0.161E+00    0.114E-01
RMM:   3    -0.599823366459E+00   -0.14962E-02   -0.11570E-02    16   0.599E-01    0.422E-02
RMM:   4    -0.600248013976E+00   -0.42465E-03   -0.20114E-03    16   0.246E-01    0.246E-02
RMM:   5    -0.600368294852E+00   -0.12028E-03   -0.42473E-04    16   0.116E-01    0.392E-03
RMM:   6    -0.600403496995E+00   -0.35202E-04   -0.62293E-05    16   0.449E-02
   5 F= -.60366632E+00 E0= -.60210826E+00  d E =-.327955E+00
       N       E                     dE             d eps       ncg     rms          rms(c)
DAV:   1    -0.133652331925E+01   -0.73616E+00   -0.57062E+01    16   0.331E+01    0.809E-01
RMM:   2    -0.143317751484E+01   -0.96654E-01   -0.95493E-01    16   0.410E+00    0.283E-01
RMM:   3    -0.144501031997E+01   -0.11833E-01   -0.10373E-01    16   0.169E+00    0.109E-01
RMM:   4    -0.144704810495E+01   -0.20378E-02   -0.14946E-02    16   0.678E-01    0.612E-02
RMM:   5    -0.144742267772E+01   -0.37457E-03   -0.28518E-03    16   0.324E-01    0.964E-03
RMM:   6    -0.144751376264E+01   -0.91085E-04   -0.38297E-04    16   0.118E-01
   6 F= -.14526078E+01 E0= -.14526075E+01  d E =-.117690E+01
       N       E                     dE             d eps       ncg     rms          rms(c)
DAV:   1    -0.504396375244E+01   -0.35965E+01   -0.19409E+02    16   0.481E+01    0.201E+00
RMM:   2    -0.615867965200E+01   -0.11147E+01   -0.10806E+01    16   0.138E+01    0.139E+00
RMM:   3    -0.630912767896E+01   -0.15045E+00   -0.16979E+00    16   0.663E+00    0.141E+00
RMM:   4    -0.624681059702E+01    0.62317E-01   -0.19899E-01    16   0.226E+00    0.655E-01
RMM:   5    -0.625891276196E+01   -0.12102E-01   -0.24712E-02    16   0.759E-01    0.582E-01
RMM:   6    -0.626406880233E+01   -0.51560E-02   -0.37899E-02    16   0.558E-01    0.490E-01
RMM:   7    -0.626054415877E+01    0.35246E-02   -0.27322E-03    16   0.217E-01    0.271E-01
RMM:   8    -0.625950347694E+01    0.10407E-02   -0.28688E-03    16   0.152E-01    0.669E-02
RMM:   9    -0.625996352295E+01   -0.46005E-03   -0.10234E-03    16   0.895E-02    0.517E-02
RMM:  10    -0.626027780579E+01   -0.31428E-03   -0.69144E-05    16   0.290E-02    0.155E-02
RMM:  11    -0.626063704673E+01   -0.35924E-03   -0.48471E-05    15   0.210E-02    0.900E-03
RMM:  12    -0.626080096000E+01   -0.16391E-03   -0.14273E-05    15   0.932E-03    0.337E-03
RMM:  13    -0.626090082030E+01   -0.99860E-04   -0.51018E-06    15   0.582E-03
   7 F= -.62665317E+01 E0= -.62665317E+01  d E =-.599082E+01
       N       E                     dE             d eps       ncg     rms          rms(c)
DAV:   1    -0.257151772534E+01    0.36893E+01   -0.10076E+02    16   0.409E+01    0.196E+00
RMM:   2    -0.271543816161E+01   -0.14392E+00   -0.17750E+00    16   0.604E+00    0.112E+00
RMM:   3    -0.273918333948E+01   -0.23745E-01   -0.33475E-01    16   0.271E+00    0.334E-01
RMM:   4    -0.274753716782E+01   -0.83538E-02   -0.47659E-02    16   0.112E+00    0.154E-01
RMM:   5    -0.274976869542E+01   -0.22315E-02   -0.11482E-02    16   0.584E-01    0.126E-02
RMM:   6    -0.275007505297E+01   -0.30636E-03   -0.16140E-03    16   0.222E-01    0.917E-03
RMM:   7    -0.275023297602E+01   -0.15792E-03   -0.37616E-04    16   0.109E-01    0.146E-02
RMM:   8    -0.275035232666E+01   -0.11935E-03   -0.79933E-05    16   0.439E-02    0.451E-03
RMM:   9    -0.275043989310E+01   -0.87566E-04   -0.23120E-05    15   0.220E-02
   8 F= -.27561518E+01 E0= -.27561518E+01  d E =-.248044E+01
       N       E                     dE             d eps       ncg     rms          rms(c)
DAV:   1    -0.457541574921E+01   -0.18251E+01   -0.20442E+02    16   0.510E+01    0.285E+00
RMM:   2    -0.616328460055E+01   -0.15879E+01   -0.16555E+01    16   0.195E+01    0.305E+00
RMM:   3    -0.632173913252E+01   -0.15845E+00   -0.20806E+00    16   0.802E+00    0.349E+00
RMM:   4    -0.630863081031E+01    0.13108E-01   -0.20873E-01    16   0.223E+00    0.482E+00
RMM:   5     0.256742729663E+02    0.31983E+02    0.11138E+01    18   0.865E+00    0.976E+00
RMM:   6     0.276111229284E+01   -0.22913E+02   -0.70430E-01    20   0.250E+00    0.762E+00
RMM:   7    -0.857510469692E+01   -0.11336E+02   -0.27279E+01    18   0.226E+01    0.154E+01
RMM:   8    -0.530824915869E+01    0.32669E+01   -0.11274E+00    17   0.766E+00    0.103E+01
RMM:   9     0.259089345572E+02    0.31217E+02   -0.15390E-01    18   0.394E+01    0.967E+00
RMM:  10    -0.194014416031E+01   -0.27849E+02   -0.52280E+01    19   0.264E+01    0.995E+00
RMM:  11     0.868888059075E+01    0.10629E+02   -0.11084E+01    18   0.140E+01    0.788E+00
RMM:  12    -0.801758448591E+03   -0.81045E+03    0.10367E+03    18   0.227E+03    0.662E+00
RMM:  13     0.133629534613E+02    0.81512E+03    0.18075E+02    18   0.101E+02    0.129E+01
RMM:  14    -0.685701059522E+03   -0.69906E+03    0.11234E+02    18   0.162E+03    0.395E+01
RMM:  15    -0.140793915459E+04   -0.72224E+03   -0.52464E+02    18   0.414E+02    0.605E+01
RMM:  16     0.219088102068E+02    0.14298E+04   -0.14803E-01    18   0.169E+00    0.227E+01
RMM:  17     0.110063299959E+02   -0.10902E+02    0.21732E+00    18   0.397E+01    0.482E+00
RMM:  18    -0.391248697731E+01   -0.14919E+02    0.82743E+00    18   0.175E+01    0.106E+01
RMM:  19    -0.643394313175E+01   -0.25215E+01   -0.17156E+01    18   0.823E+00    0.644E+00
RMM:  20    -0.601601653417E+01    0.41793E+00   -0.95660E-01    17   0.380E+00    0.192E+00
RMM:  21    -0.600062248212E+01    0.15394E-01   -0.23904E-02    16   0.687E-01    0.126E+00
RMM:  22    -0.599758613090E+01    0.30364E-02   -0.26132E-02    16   0.631E-01    0.620E-01
RMM:  23    -0.599985742874E+01   -0.22713E-02   -0.13264E-03    16   0.205E-01    0.567E-01
RMM:  24    -0.600164917414E+01   -0.17917E-02   -0.12382E-03    16   0.131E-01    0.663E-01
RMM:  25    -0.600418528782E+01   -0.25361E-02   -0.43397E-03    16   0.235E-01    0.889E-01
RMM:  26    -0.600330062203E+01    0.88467E-03   -0.59871E-04    16   0.854E-02    0.726E-01
RMM:  27    -0.600355302523E+01   -0.25240E-03   -0.69920E-03    16   0.269E-01    0.323E-01
RMM:  28    -0.600416348896E+01   -0.61046E-03   -0.76749E-04    16   0.117E-01    0.272E-01
RMM:  29    -0.600410843558E+01    0.55053E-04   -0.25230E-05    15   0.266E-02
   9 F= -.60065702E+01 E0= -.60065702E+01  d E =-.573086E+01
       N       E                     dE             d eps       ncg     rms          rms(c)
DAV:   1    -0.379522009828E+01    0.22089E+01   -0.17415E+02    16   0.547E+01    0.447E+00
RMM:   2    -0.371167315243E+01    0.83547E-01   -0.21470E+00    16   0.595E+00    0.257E+00
RMM:   3    -0.370339074022E+01    0.82824E-02   -0.84249E-01    16   0.337E+00    0.361E-01
RMM:   4    -0.371632388317E+01   -0.12933E-01   -0.70933E-02    16   0.143E+00    0.234E-01
RMM:   5    -0.371919164396E+01   -0.28678E-02   -0.12276E-02    16   0.656E-01    0.488E-02
RMM:   6    -0.371955161334E+01   -0.35997E-03   -0.19979E-03    16   0.247E-01    0.472E-02
RMM:   7    -0.372019790951E+01   -0.64630E-03   -0.58082E-04    16   0.134E-01    0.298E-02
RMM:   8    -0.372023918292E+01   -0.41273E-04   -0.70107E-05    16   0.477E-02
  10 F= -.37260617E+01 E0= -.37260617E+01  d E =-.345035E+01
       N       E                     dE             d eps       ncg     rms          rms(c)
DAV:   1    -0.576518897648E+01   -0.20450E+01   -0.37734E+01    16   0.265E+01    0.100E+00
RMM:   2    -0.585972472547E+01   -0.94536E-01   -0.10128E+00    16   0.465E+00    0.783E-01
RMM:   3    -0.585747123502E+01    0.22535E-02   -0.71764E-02    16   0.153E+00    0.524E-01
RMM:   4    -0.585058319914E+01    0.68880E-02   -0.17705E-02    16   0.624E-01    0.429E-02
RMM:   5    -0.585094887165E+01   -0.36567E-03   -0.10862E-03    16   0.166E-01    0.219E-02
RMM:   6    -0.585139936346E+01   -0.45049E-03   -0.28190E-04    16   0.777E-02    0.982E-03
RMM:   7    -0.585151381290E+01   -0.11445E-03   -0.46980E-05    15   0.289E-02    0.707E-03
RMM:   8    -0.585177660872E+01   -0.26280E-03   -0.54463E-05    15   0.205E-02    0.598E-03
RMM:   9    -0.585188209136E+01   -0.10548E-03   -0.10930E-05    15   0.835E-03    0.351E-03
RMM:  10    -0.585198830590E+01   -0.10621E-03   -0.11470E-05    15   0.768E-03    0.344E-03
RMM:  11    -0.585202271881E+01   -0.34413E-04    0.00000E+00    14   0.341E-03
  11 F= -.58578503E+01 E0= -.58578503E+01  d E =-.558214E+01
       N       E                     dE             d eps       ncg     rms          rms(c)
DAV:   1    -0.672821932861E+01   -0.87623E+00   -0.13203E+01    16   0.159E+01    0.124E+00
RMM:   2    -0.671346057861E+01    0.14759E-01   -0.11766E-01    16   0.174E+00    0.782E-01
RMM:   3    -0.670068417753E+01    0.12776E-01   -0.51493E-02    16   0.716E-01    0.968E-02
RMM:   4    -0.670098662922E+01   -0.30245E-03   -0.25184E-03    16   0.195E-01    0.349E-02
RMM:   5    -0.670136722429E+01   -0.38060E-03   -0.16381E-04    16   0.822E-02    0.344E-02
RMM:   6    -0.670141719019E+01   -0.49966E-04   -0.99337E-05    16   0.379E-02
  12 F= -.67043421E+01 E0= -.67043421E+01  d E =-.642863E+01
       N       E                     dE             d eps       ncg     rms          rms(c)
DAV:   1    -0.673810479069E+01   -0.36738E-01   -0.41325E+00    16   0.943E+00    0.971E-01
RMM:   2    -0.672514321081E+01    0.12962E-01   -0.23140E-02    16   0.773E-01    0.574E-01
RMM:   3    -0.671914499677E+01    0.59982E-02   -0.27239E-02    16   0.491E-01    0.717E-02
RMM:   4    -0.671925516100E+01   -0.11016E-03   -0.12469E-03    16   0.145E-01    0.276E-02
RMM:   5    -0.671941548781E+01   -0.16033E-03   -0.52848E-05    15   0.375E-02    0.218E-02
RMM:   6    -0.671944839452E+01   -0.32907E-04   -0.30465E-05    15   0.187E-02
  13 F= -.67219212E+01 E0= -.67219212E+01  d E =-.644621E+01
       N       E                     dE             d eps       ncg     rms          rms(c)
DAV:   1    -0.677489150991E+01   -0.55476E-01   -0.12296E+00    16   0.532E+00    0.574E-01
RMM:   2    -0.677005776958E+01    0.48337E-02   -0.65305E-03    16   0.366E-01    0.316E-01
RMM:   3    -0.676856971942E+01    0.14881E-02   -0.75598E-03    16   0.271E-01    0.252E-02
RMM:   4    -0.676874550984E+01   -0.17579E-03   -0.34669E-04    16   0.870E-02    0.930E-03
RMM:   5    -0.676880391721E+01   -0.58407E-04   -0.38612E-05    15   0.321E-02    0.280E-03
RMM:   6    -0.676882838188E+01   -0.24465E-04   -0.60999E-06    15   0.981E-03
  14 F= -.67713652E+01 E0= -.67713652E+01  d E =-.649565E+01
       N       E                     dE             d eps       ncg     rms          rms(c)
DAV:   1    -0.677127389433E+01   -0.24700E-02   -0.43133E-02    16   0.974E-01    0.102E-01
RMM:   2    -0.677112188699E+01    0.15201E-03   -0.20360E-04    16   0.683E-02    0.578E-02
RMM:   3    -0.677107099296E+01    0.50894E-04   -0.25014E-04    16   0.486E-02    0.489E-03
RMM:   4    -0.677107564019E+01   -0.46472E-05   -0.11780E-05    15   0.151E-02    0.227E-03
RMM:   5    -0.677107853475E+01   -0.28946E-05   -0.88024E-07    15   0.469E-03    0.962E-04
RMM:   6    -0.677107892546E+01   -0.39072E-06    0.00000E+00    14   0.222E-03
  15 F= -.67735925E+01 E0= -.67735925E+01  d E =-.649788E+01
       N       E                     dE             d eps       ncg     rms          rms(c)
DAV:   1    -0.677108425470E+01   -0.57200E-05   -0.91855E-05    32   0.441E-02    0.526E-03
RMM:   2    -0.677108379113E+01    0.46357E-06    0.00000E+00     8   0.148E-03    0.323E-03
RMM:   3    -0.677108393178E+01   -0.14065E-06    0.00000E+00    14   0.397E-03    0.125E-04
RMM:   4    -0.677108411633E+01   -0.18456E-06    0.00000E+00    14   0.412E-03    0.361E-05
RMM:   5    -0.677108420330E+01   -0.86961E-07    0.00000E+00    13   0.417E-03    0.196E-05
RMM:   6    -0.677108431078E+01   -0.10749E-06    0.00000E+00    13   0.419E-03
  16 F= -.67735987E+01 E0= -.67735987E+01  d E =-.649789E+01
