<?xml version="1.0" encoding="ISO-8859-1"?>
<modeling>
 <generator>
  <i name="program" type="string">vasp </i>
  <i name="version" type="string">6.3.2  </i>
  <i name="subversion" type="string">27Jun22 (build Sep  5 2022 18:50:32) complex                          parallel </i>
  <i name="platform" type="string">LinuxNV </i>
  <i name="date" type="string">2023 01 26 </i>
  <i name="time" type="string">05:24:08 </i>
 </generator>
 <incar>
  <i type="string" name="PREC">Accurate   (Precision level: Normal or Accurate, set Accurate when perform structure lattice relaxation calculation)</i>
  <i type="string" name="ALGO">Fast</i>
  <i type="logical" name="ADDGRID"> T  </i>
  <i type="int" name="NELM">   150</i>
  <i type="int" name="NELMIN">     6</i>
  <i type="int" name="IBRION">     2</i>
  <i name="EDIFF">      0.00010000</i>
  <i name="EDIFFG">     -0.01000000</i>
  <i type="int" name="NSW">   100</i>
  <i type="int" name="ISIF">     2</i>
  <i name="ENCUT">    520.00000000</i>
  <i type="logical" name="LREAL"> F  </i>
  <i type="int" name="ISMEAR">    -1</i>
  <i name="SIGMA">      0.05000000</i>
  <i type="logical" name="LWAVE"> T  </i>
  <i type="logical" name="LCHARG"> T  </i>
  <i type="int" name="LORBIT">    11</i>
  <i type="int" name="IVDW">    12</i>
 </incar>
 <primitive_cell>
  <structure name="primitive_cell" >
   <crystal>
    <varray name="basis" >
     <v>      11.10380000       0.00000000       0.00000000 </v>
     <v>       0.00000000      11.20020000       0.00000000 </v>
     <v>       0.00000000       0.00000000      32.43460000 </v>
    </varray>
    <i name="volume">   4033.72191804 </i>
    <varray name="rec_basis" >
     <v>       0.09005926       0.00000000       0.00000000 </v>
     <v>       0.00000000       0.08928412       0.00000000 </v>
     <v>       0.00000000       0.00000000       0.03083127 </v>
    </varray>
   </crystal>
   <varray name="positions" >
    <v>       0.52770183       0.63308456       0.46169141 </v>
    <v>       0.43096817       0.63159544       0.56995859 </v>
   </varray>
  </structure>
  <varray name="primitive_index" >
   <v type="int" >        1 </v>
   <v type="int" >        2 </v>
  </varray>
 </primitive_cell>
 <kpoints>
  <generation param="Monkhorst-Pack">
   <v type="int" name="divisions">       1        1        1 </v>
   <v name="usershift">      0.00000000       0.00000000       0.00000000 </v>
   <v name="genvec1">      1.00000000       0.00000000       0.00000000 </v>
   <v name="genvec2">      0.00000000       1.00000000       0.00000000 </v>
   <v name="genvec3">      0.00000000       0.00000000       1.00000000 </v>
   <v name="shift">      0.00000000       0.00000000       0.00000000 </v>
  </generation>
  <varray name="kpointlist" >
   <v>       0.00000000       0.00000000       0.00000000 </v>
  </varray>
  <varray name="weights" >
   <v>       1.00000000 </v>
  </varray>
 </kpoints>
 <parameters>
  <separator name="general" >
   <i type="string" name="SYSTEM">unknown system</i>
   <i type="logical" name="LCOMPAT"> F  </i>
  </separator>
  <separator name="electronic" >
   <i type="string" name="PREC">accura</i>
   <i name="ENMAX">    520.00000000</i>
   <i name="ENAUG">    400.00000000</i>
   <i name="EDIFF">      0.00010000</i>
   <i type="int" name="IALGO">    68</i>
   <i type="int" name="IWAVPR">    11</i>
   <i type="int" name="NBANDS">     8</i>
   <i type="int" name="NBANDSLOW">    -1</i>
   <i type="int" name="NBANDSHIGH">    -1</i>
   <i name="NELECT">      2.00000000</i>
   <i type="int" name="TURBO">     0</i>
   <i type="int" name="IRESTART">     0</i>
   <i type="int" name="NREBOOT">     0</i>
   <i type="int" name="NMIN">     0</i>
   <i name="EREF">      0.00000000</i>
   <separator name="electronic smearing" >
    <i type="int" name="ISMEAR">    -1</i>
    <i name="SIGMA">      0.05000000</i>
    <i name="KSPACING">      0.50000000</i>
    <i type="logical" name="KGAMMA"> T  </i>
    <i type="logical" name="KBLOWUP"> T  </i>
   </separator>
   <separator name="electronic projectors" >
    <i type="logical" name="LREAL"> F  </i>
    <v name="ROPT">      0.00000000</v>
    <i type="int" name="LMAXPAW">  -100</i>
    <i type="int" name="LMAXMIX">     2</i>
    <i type="logical" name="NLSPLINE"> F  </i>
   </separator>
   <separator name="electronic startup" >
    <i type="int" name="ISTART">     0</i>
    <i type="int" name="ICHARG">     2</i>
    <i type="int" name="INIWAV">     1</i>
   </separator>
   <separator name="electronic spin" >
    <i type="int" name="ISPIN">     1</i>
    <i type="logical" name="LNONCOLLINEAR"> F  </i>
    <v name="MAGMOM">      1.00000000      1.00000000</v>
    <i name="NUPDOWN">     -1.00000000</i>
    <i type="logical" name="LSORBIT"> F  </i>
    <v name="SAXIS">      0.00000000      0.00000000      1.00000000</v>
    <i type="logical" name="LSPIRAL"> F  </i>
    <v name="QSPIRAL">      0.00000000      0.00000000      0.00000000</v>
    <i type="logical" name="LZEROZ"> F  </i>
   </separator>
   <separator name="electronic exchange-correlation" >
    <i type="logical" name="LASPH"> F  </i>
    <i type="logical" name="LMETAGGA"> F  </i>
   </separator>
   <separator name="electronic convergence" >
    <i type="int" name="NELM">   150</i>
    <i type="int" name="NELMDL">    -5</i>
    <i type="int" name="NELMIN">     6</i>
    <i name="ENINI">    520.00000000</i>
    <separator name="electronic convergence detail" >
     <i type="logical" name="LDIAG"> T  </i>
     <i type="logical" name="LSUBROT"> F  </i>
     <i name="WEIMIN">      0.00100000</i>
     <i name="EBREAK">      0.00000313</i>
     <i name="DEPER">      0.30000000</i>
     <i type="int" name="NRMM">     4</i>
     <i name="TIME">      0.40000000</i>
    </separator>
   </separator>
   <separator name="electronic mixer" >
    <i name="AMIX">      0.40000000</i>
    <i name="BMIX">      1.00000000</i>
    <i name="AMIN">      0.10000000</i>
    <i name="AMIX_MAG">      1.60000000</i>
    <i name="BMIX_MAG">      1.00000000</i>
    <separator name="electronic mixer details" >
     <i type="int" name="IMIX">     4</i>
     <i type="logical" name="MIXFIRST"> F  </i>
     <i type="int" name="MAXMIX">   -45</i>
     <i name="WC">    100.00000000</i>
     <i type="int" name="INIMIX">     1</i>
     <i type="int" name="MIXPRE">     1</i>
     <i type="int" name="MREMOVE">     5</i>
    </separator>
   </separator>
   <separator name="electronic dipolcorrection" >
    <i type="logical" name="LDIPOL"> F  </i>
    <i type="logical" name="LMONO"> F  </i>
    <i type="int" name="IDIPOL">     0</i>
    <i name="EPSILON">      1.00000000</i>
    <v name="DIPOL">   -100.00000000   -100.00000000   -100.00000000</v>
    <i name="EFIELD">      0.00000000</i>
   </separator>
  </separator>
  <separator name="grids" >
   <i type="int" name="NGX">    84</i>
   <i type="int" name="NGY">    84</i>
   <i type="int" name="NGZ">   250</i>
   <i type="int" name="NGXF">   168</i>
   <i type="int" name="NGYF">   168</i>
   <i type="int" name="NGZF">   500</i>
   <i type="logical" name="ADDGRID"> T  </i>
  </separator>
  <separator name="ionic" >
   <i type="int" name="NSW">   100</i>
   <i type="int" name="IBRION">     2</i>
   <i type="int" name="MDALGO">     0</i>
   <i type="int" name="ISIF">     2</i>
   <i name="PSTRESS">      0.00000000</i>
   <i name="EDIFFG">     -0.01000000</i>
   <i type="int" name="NFREE">     1</i>
   <i name="POTIM">      0.50000000</i>
   <i name="SMASS">     -3.00000000</i>
   <i name="SCALEE">      1.00000000</i>
  </separator>
  <separator name="ionic md" >
   <i name="TEBEG">      0.00010000</i>
   <i name="TEEND">      0.00010000</i>
   <i type="int" name="NBLOCK">     1</i>
   <i type="int" name="KBLOCK">   100</i>
   <i type="int" name="NPACO">   256</i>
   <i name="APACO">     10.00000000</i>
  </separator>
  <separator name="symmetry" >
   <i type="int" name="ISYM">     2</i>
   <i name="SYMPREC">      0.00001000</i>
  </separator>
  <separator name="dos" >
   <i type="int" name="LORBIT">    11</i>
   <v name="RWIGS">     -1.00000000</v>
   <i type="int" name="NEDOS">   301</i>
   <i name="EMIN">     10.00000000</i>
   <i name="EMAX">    -10.00000000</i>
   <i name="EFERMI">      0.00000000</i>
  </separator>
  <separator name="writing" >
   <i type="int" name="NWRITE">     2</i>
   <i type="logical" name="LWAVE"> T  </i>
   <i type="logical" name="LDOWNSAMPLE"> F  </i>
   <i type="logical" name="LCHARG"> T  </i>
   <i type="logical" name="LPARD"> F  </i>
   <i type="logical" name="LVTOT"> F  </i>
   <i type="logical" name="LVHAR"> F  </i>
   <i type="logical" name="LELF"> F  </i>
   <i type="logical" name="LOPTICS"> F  </i>
   <v name="STM">      0.00000000      0.00000000      0.00000000      0.00000000      0.00000000      0.00000000      0.00000000</v>
  </separator>
  <separator name="performance" >
   <i type="int" name="NPAR">     4</i>
   <i type="int" name="NSIM">     4</i>
   <i type="int" name="NBLK">    -1</i>
   <i type="logical" name="LPLANE"> T  </i>
   <i type="logical" name="LSCALAPACK"> F  </i>
   <i type="logical" name="LSCAAWARE"> F  </i>
   <i type="logical" name="LSCALU"> F  </i>
   <i type="logical" name="LASYNC"> F  </i>
   <i type="logical" name="LORBITALREAL"> F  </i>
  </separator>
  <separator name="miscellaneous" >
   <i type="int" name="IDIOT">     3</i>
   <i type="int" name="PHON_NSTRUCT">    -1</i>
   <i type="logical" name="LMUSIC"> F  </i>
   <v name="POMASS">      1.00000000</v>
   <v name="DARWINR">      0.00000000</v>
   <v name="DARWINV">      1.00000000</v>
   <i type="logical" name="LCORR"> T  </i>
  </separator>
  <i type="logical" name="GGA_COMPAT"> T  </i>
  <i type="logical" name="LBERRY"> F  </i>
  <i type="int" name="ICORELEVEL">     0</i>
  <i type="logical" name="LDAU"> F  </i>
  <i type="int" name="I_CONSTRAINED_M">     0</i>
  <separator name="electronic exchange-correlation" >
   <i type="string" name="GGA">--</i>
   <i type="int" name="VOSKOWN">     0</i>
   <i type="logical" name="LHFCALC"> F  </i>
   <i type="string" name="PRECFOCK"></i>
   <i type="logical" name="LSYMGRAD"> F  </i>
   <i type="logical" name="LHFONE"> F  </i>
   <i type="logical" name="LRHFCALC"> F  </i>
   <i type="logical" name="LTHOMAS"> F  </i>
   <i type="logical" name="LMODELHF"> F  </i>
   <i type="logical" name="LFOCKACE"> F  </i>
   <i name="ENCUT4O">     -1.00000000</i>
   <i type="int" name="EXXOEP">     0</i>
   <i type="int" name="FOURORBIT">     0</i>
   <i name="AEXX">      0.00000000</i>
   <i name="HFALPHA">      0.00000000</i>
   <i name="MCALPHA">      0.00000000</i>
   <i name="ALDAX">      1.00000000</i>
   <i name="AGGAX">      1.00000000</i>
   <i name="ALDAC">      1.00000000</i>
   <i name="AGGAC">      1.00000000</i>
   <i type="int" name="NKREDX">     1</i>
   <i type="int" name="NKREDY">     1</i>
   <i type="int" name="NKREDZ">     1</i>
   <i type="logical" name="SHIFTRED"> F  </i>
   <i type="logical" name="ODDONLY"> F  </i>
   <i type="logical" name="EVENONLY"> F  </i>
   <i type="int" name="LMAXFOCK">     0</i>
   <i type="int" name="NMAXFOCKAE">     0</i>
   <i type="logical" name="LFOCKAEDFT"> F  </i>
   <i name="HFSCREEN">      0.00000000</i>
   <i name="HFSCREENC">      0.00000000</i>
   <i type="int" name="NBANDSGWLOW">     0</i>
  </separator>
  <separator name="vdW DFT" >
   <i type="logical" name="LUSE_VDW"> F  </i>
   <i name="Zab_VDW">     -0.84910000</i>
   <i name="PARAM1">      0.12340000</i>
   <i name="PARAM2">      1.00000000</i>
   <i name="PARAM3">      0.00000000</i>
  </separator>
  <separator name="model GW" >
   <i type="int" name="MODEL_GW">     0</i>
   <i name="MODEL_EPS0">   1210.11657541</i>
   <i name="MODEL_ALPHA">      1.00000000</i>
  </separator>
  <separator name="linear response parameters" >
   <i type="logical" name="LEPSILON"> F  </i>
   <i type="logical" name="LRPA"> F  </i>
   <i type="logical" name="LNABLA"> F  </i>
   <i type="logical" name="LVEL"> F  </i>
   <i name="CSHIFT">      0.10000000</i>
   <i name="OMEGAMAX">     -1.00000000</i>
   <i name="DEG_THRESHOLD">      0.00200000</i>
   <i name="RTIME">     -0.10000000</i>
   <i name="WPLASMAI">      0.00000000</i>
   <v name="DFIELD">      0.00000000      0.00000000      0.00000000</v>
   <v name="WPLASMA">      0.00000000      0.00000000      0.00000000      0.00000000      0.00000000      0.00000000      0.00000000      0.00000000      0.00000000</v>
  </separator>
  <separator name="orbital magnetization" >
   <i type="logical" name="NUCIND"> F  </i>
   <v name="MAGPOS">      0.00000000      0.00000000      0.00000000</v>
   <i type="logical" name="LNICSALL"> T  </i>
   <i type="logical" name="ORBITALMAG"> F  </i>
   <i type="logical" name="LMAGBLOCH"> F  </i>
   <i type="logical" name="LCHIMAG"> F  </i>
   <i type="logical" name="LGAUGE"> T  </i>
   <i type="int" name="MAGATOM">     0</i>
   <v name="MAGDIPOL">      0.00000000      0.00000000      0.00000000</v>
   <v name="AVECCONST">      0.00000000      0.00000000      0.00000000</v>
  </separator>
  <separator name="response functions" >
   <i type="logical" name="LFINITE_TEMPERATURE"> F  </i>
   <i type="logical" name="LADDER"> F  </i>
   <i type="logical" name="LRPAFORCE"> F  </i>
   <i type="logical" name="LFXC"> F  </i>
   <i type="logical" name="LHARTREE"> T  </i>
   <i type="int" name="IBSE">     0</i>
   <v type="int" name="KPOINT">    -1     0     0     0</v>
   <i type="logical" name="LTCTC"> F  </i>
   <i type="logical" name="LTCTE"> F  </i>
   <i type="logical" name="LTETE"> F  </i>
   <i type="logical" name="LTRIPLET"> F  </i>
   <i type="logical" name="LFXCEPS"> F  </i>
   <i type="logical" name="LFXHEG"> F  </i>
   <i type="int" name="NATURALO">     2</i>
   <i type="logical" name="LHOLEGF"> F  </i>
   <i type="logical" name="L2ORDER"> F  </i>
   <i type="logical" name="LDMP1"> F  </i>
   <i type="logical" name="LMP2LT"> F  </i>
   <i type="logical" name="LSMP2LT"> F  </i>
   <i type="logical" name="LGWLF"> F  </i>
   <i name="ENCUTGW">     -2.00000000</i>
   <i name="ENCUTGWSOFT">     -2.00000000</i>
   <i name="ENCUTLF">     -1.00000000</i>
   <i type="logical" name="LESF_SPLINES"> F  </i>
   <i type="int" name="LMAXMP2">    -1</i>
   <i name="SCISSOR">      0.00000000</i>
   <i type="int" name="NOMEGA">     0</i>
   <i type="int" name="NOMEGAR">     0</i>
   <i type="int" name="NBANDSGW">    -1</i>
   <i type="int" name="NBANDSO">    -1</i>
   <i type="int" name="NBANDSV">    -1</i>
   <i type="int" name="NELMGW">     1</i>
   <i type="int" name="NELMHF">     1</i>
   <i type="int" name="DIM">     3</i>
   <i type="int" name="IESPILON">     4</i>
   <i type="int" name="ANTIRES">     0</i>
   <i name="OMEGAMAX">    -30.00000000</i>
   <i name="OMEGAMIN">    -30.00000000</i>
   <i name="OMEGATL">   -200.00000000</i>
   <i type="int" name="OMEGAGRID">     0</i>
   <i name="CSHIFT">     -0.10000000</i>
   <i type="logical" name="LSELFENERGY"> F  </i>
   <i type="logical" name="LSPECTRAL"> F  </i>
   <i type="logical" name="LSPECTRALGW"> F  </i>
   <i type="logical" name="LSINGLES"> F  </i>
   <i type="logical" name="LFERMIGW"> F  </i>
   <i type="logical" name="ODDONLYGW"> F  </i>
   <i type="logical" name="EVENONLYGW"> F  </i>
   <i type="int" name="NKREDLFX">     1</i>
   <i type="int" name="NKREDLFY">     1</i>
   <i type="int" name="NKREDLFZ">     1</i>
   <i type="int" name="MAXMEM">  2800</i>
   <i type="int" name="TELESCOPE">     0</i>
   <i type="int" name="NTAUPAR">    -1</i>
   <i type="int" name="NOMEGAPAR">    -1</i>
   <i name="DAMP_NEWTON">      0.80000001</i>
   <i name="LAMBDA">      1.00000000</i>
  </separator>
  <separator name="External order field" >
   <i name="OFIELD_KAPPA">      0.00000000</i>
   <v name="OFIELD_K">      0.00000000      0.00000000      0.00000000</v>
   <i name="OFIELD_Q6_NEAR">      0.00000000</i>
   <i name="OFIELD_Q6_FAR">      0.00000000</i>
   <i name="OFIELD_A">      0.00000000</i>
  </separator>
  <separator name="optional k-points parameters" >
   <i type="int" name="KPOINTS_OPT_MODE">     1</i>
   <i type="logical" name="LKPOINTS_OPT"> F  </i>
  </separator>
 </parameters>
 <atominfo>
  <atoms>       2 </atoms>
  <types>       1 </types>
  <array name="atoms" >
   <dimension dim="1">ion</dimension>
   <field type="string">element</field>
   <field type="int">atomtype</field>
   <set>
    <rc><c>H </c><c>   1</c></rc>
    <rc><c>H </c><c>   1</c></rc>
   </set>
  </array>
  <array name="atomtypes" >
   <dimension dim="1">type</dimension>
   <field type="int">atomspertype</field>
   <field type="string">element</field>
   <field>mass</field>
   <field>valence</field>
   <field type="string">pseudopotential</field>
   <set>
    <rc><c>   2</c><c>H </c><c>      1.00000000</c><c>      1.00000000</c><c>  PAW_PBE H 15Jun2001                   </c></rc>
   </set>
  </array>
 </atominfo>
 <structure name="initialpos" >
  <crystal>
   <varray name="basis" >
    <v>      11.10380000       0.00000000       0.00000000 </v>
    <v>       0.00000000      11.20020000       0.00000000 </v>
    <v>       0.00000000       0.00000000      32.43460000 </v>
   </varray>
   <i name="volume">   4033.72191804 </i>
   <varray name="rec_basis" >
    <v>       0.09005926       0.00000000       0.00000000 </v>
    <v>       0.00000000       0.08928412       0.00000000 </v>
    <v>       0.00000000       0.00000000       0.03083127 </v>
   </varray>
  </crystal>
  <varray name="positions" >
   <v>       0.52770183       0.63308456       0.46169141 </v>
   <v>       0.43096817       0.63159544       0.56995859 </v>
  </varray>
 </structure>
 <calculation>
  <scstep>
   <time name="dav">    0.06    0.07</time>
   <time name="total">    1.21    0.97</time>
   <energy>
    <i name="alphaZ">      0.00241580 </i>
    <i name="ewald">      1.45716956 </i>
    <i name="hartreedc">    -17.23754353 </i>
    <i name="XCdc">      3.77960123 </i>
    <i name="pawpsdc">      4.26805487 </i>
    <i name="pawaedc">     -4.28581044 </i>
    <i name="eentropy">     -0.00000000 </i>
    <i name="bandstr">     -8.03667370 </i>
    <i name="atom">     24.97394176 </i>
    <i name="e_fr_energy">      4.92115554 </i>
    <i name="e_wo_entrp">      4.92115554 </i>
    <i name="e_0_energy">      4.92115554 </i>
   </energy>
  </scstep>
  <scstep>
   <time name="dav">    0.03    0.03</time>
   <time name="total">    0.03    0.03</time>
   <energy>
    <i name="e_fr_energy">     -0.15900622 </i>
    <i name="e_wo_entrp">     -0.15880229 </i>
    <i name="e_0_energy">     -0.15890426 </i>
   </energy>
  </scstep>
  <scstep>
   <time name="dav">    0.02    0.02</time>
   <time name="total">    0.02    0.02</time>
   <energy>
    <i name="e_fr_energy">     -0.27191725 </i>
    <i name="e_wo_entrp">     -0.22446483 </i>
    <i name="e_0_energy">     -0.24819104 </i>
   </energy>
  </scstep>
  <scstep>
   <time name="dav">    0.02    0.02</time>
   <time name="total">    0.02    0.02</time>
   <energy>
    <i name="e_fr_energy">     -0.27440032 </i>
    <i name="e_wo_entrp">     -0.22378503 </i>
    <i name="e_0_energy">     -0.24909268 </i>
   </energy>
  </scstep>
  <scstep>
   <time name="dav">    0.03    0.03</time>
   <time name="total">    1.11    0.92</time>
   <energy>
    <i name="e_fr_energy">     -0.27441880 </i>
    <i name="e_wo_entrp">     -0.22378103 </i>
    <i name="e_0_energy">     -0.24909992 </i>
   </energy>
  </scstep>
  <scstep>
   <time name="diag">    0.04    0.01</time>
   <time name="diis">    0.02    0.07</time>
   <time name="orth">    0.00    0.00</time>
   <time name="total">    2.08    1.84</time>
   <energy>
    <i name="e_fr_energy">     -0.27358911 </i>
    <i name="e_wo_entrp">     -0.22261821 </i>
    <i name="e_0_energy">     -0.24810366 </i>
   </energy>
  </scstep>
  <scstep>
   <time name="diag">    0.03    0.01</time>
   <time name="diis">    0.01    0.01</time>
   <time name="orth">    0.00    0.00</time>
   <time name="total">    2.06    1.70</time>
   <energy>
    <i name="e_fr_energy">     -0.27301673 </i>
    <i name="e_wo_entrp">     -0.22174091 </i>
    <i name="e_0_energy">     -0.24737882 </i>
   </energy>
  </scstep>
  <scstep>
   <time name="diag">    0.03    0.01</time>
   <time name="diis">    0.01    0.01</time>
   <time name="orth">    0.00    0.00</time>
   <time name="total">    2.09    1.71</time>
   <energy>
    <i name="e_fr_energy">     -0.27349025 </i>
    <i name="e_wo_entrp">     -0.22268299 </i>
    <i name="e_0_energy">     -0.24808662 </i>
   </energy>
  </scstep>
  <scstep>
   <time name="diag">    0.02    0.01</time>
   <time name="diis">    0.01    0.01</time>
   <time name="orth">    0.00    0.00</time>
   <time name="total">    2.16    1.70</time>
   <energy>
    <i name="e_fr_energy">     -0.27365596 </i>
    <i name="e_wo_entrp">     -0.22284563 </i>
    <i name="e_0_energy">     -0.24825080 </i>
   </energy>
  </scstep>
  <scstep>
   <time name="diag">    0.04    0.01</time>
   <time name="diis">    0.01    0.01</time>
   <time name="orth">    0.00    0.00</time>
   <time name="total">    2.19    1.71</time>
   <energy>
    <i name="e_fr_energy">     -0.27401966 </i>
    <i name="e_wo_entrp">     -0.22332273 </i>
    <i name="e_0_energy">     -0.24867119 </i>
   </energy>
  </scstep>
  <scstep>
   <time name="diag">    0.03    0.01</time>
   <time name="diis">    0.01    0.01</time>
   <time name="orth">    0.00    0.00</time>
   <time name="total">    1.08    0.84</time>
   <energy>
    <i name="alphaZ">      0.00241580 </i>
    <i name="ewald">      1.45716956 </i>
    <i name="hartreedc">    -17.03449629 </i>
    <i name="XCdc">      3.71651697 </i>
    <i name="pawpsdc">      4.08519937 </i>
    <i name="pawaedc">     -4.10214405 </i>
    <i name="eentropy">     -0.05072385 </i>
    <i name="bandstr">    -13.32199689 </i>
    <i name="atom">     24.97394176 </i>
    <i name="e_fr_energy">     -0.27411761 </i>
    <i name="e_wo_entrp">     -0.22339377 </i>
    <i name="e_0_energy">     -0.24875569 </i>
   </energy>
  </scstep>
  <structure>
   <crystal>
    <varray name="basis" >
     <v>      11.10380000       0.00000000       0.00000000 </v>
     <v>       0.00000000      11.20020000       0.00000000 </v>
     <v>       0.00000000       0.00000000      32.43460000 </v>
    </varray>
    <i name="volume">   4033.72191804 </i>
    <varray name="rec_basis" >
     <v>       0.09005926       0.00000000       0.00000000 </v>
     <v>       0.00000000       0.08928412       0.00000000 </v>
     <v>       0.00000000       0.00000000       0.03083127 </v>
    </varray>
   </crystal>
   <varray name="positions" >
    <v>       0.52770183       0.63308456       0.46169141 </v>
    <v>       0.43096817       0.63159544       0.56995859 </v>
   </varray>
  </structure>
  <varray name="forces" >
   <v>      -0.08725853      -0.00135536       0.28590660 </v>
   <v>       0.08725853       0.00135536      -0.28590660 </v>
  </varray>
  <varray name="stress" >
   <v>      -0.04356776      -0.00057750       0.12204790 </v>
   <v>      -0.00057750      -0.00626891       0.00189642 </v>
   <v>       0.12204790       0.00189642      -0.40528414 </v>
  </varray>
  <energy>
   <i name="e_fr_energy">     -0.27571098 </i>
   <i name="e_wo_entrp">     -0.22498714 </i>
   <i name="e_0_energy">     -0.25034906 </i>
  </energy>
  <time name="totalsc">   43.25   37.43</time>
 </calculation>
 <calculation>
  <scstep>
   <time name="dav">    0.05    0.02</time>
   <time name="total">    2.07    1.71</time>
   <energy>
    <i name="alphaZ">      0.00241580 </i>
    <i name="ewald">      1.49198900 </i>
    <i name="hartreedc">    -17.07581024 </i>
    <i name="XCdc">      3.71710147 </i>
    <i name="pawpsdc">      4.08598028 </i>
    <i name="pawaedc">     -4.10291953 </i>
    <i name="eentropy">     -0.04735967 </i>
    <i name="bandstr">    -13.32836162 </i>
    <i name="atom">     24.97394176 </i>
    <i name="e_fr_energy">     -0.28302274 </i>
    <i name="e_wo_entrp">     -0.23566308 </i>
    <i name="e_0_energy">     -0.25934291 </i>
   </energy>
  </scstep>
  <scstep>
   <time name="diag">    0.02    0.01</time>
   <time name="diis">    0.01    0.01</time>
   <time name="orth">    0.00    0.00</time>
   <time name="total">    2.10    1.71</time>
   <energy>
    <i name="e_fr_energy">     -0.28306046 </i>
    <i name="e_wo_entrp">     -0.23570133 </i>
    <i name="e_0_energy">     -0.25938090 </i>
   </energy>
  </scstep>
  <scstep>
   <time name="diag">    0.02    0.01</time>
   <time name="diis">    0.01    0.01</time>
   <time name="orth">    0.00    0.00</time>
   <time name="total">    2.13    1.73</time>
   <energy>
    <i name="e_fr_energy">     -0.28309055 </i>
    <i name="e_wo_entrp">     -0.23574124 </i>
    <i name="e_0_energy">     -0.25941589 </i>
   </energy>
  </scstep>
  <scstep>
   <time name="diag">    0.02    0.01</time>
   <time name="diis">    0.01    0.01</time>
   <time name="orth">    0.00    0.00</time>
   <time name="total">    2.14    1.73</time>
   <energy>
    <i name="e_fr_energy">     -0.28310643 </i>
    <i name="e_wo_entrp">     -0.23577014 </i>
    <i name="e_0_energy">     -0.25943829 </i>
   </energy>
  </scstep>
  <scstep>
   <time name="diag">    0.03    0.01</time>
   <time name="diis">    0.01    0.01</time>
   <time name="orth">    0.00    0.00</time>
   <time name="total">    2.11    1.74</time>
   <energy>
    <i name="e_fr_energy">     -0.28311848 </i>
    <i name="e_wo_entrp">     -0.23579245 </i>
    <i name="e_0_energy">     -0.25945546 </i>
   </energy>
  </scstep>
  <scstep>
   <time name="diag">    0.04    0.01</time>
   <time name="diis">    0.01    0.01</time>
   <time name="orth">    0.00    0.00</time>
   <time name="total">    0.99    0.84</time>
   <energy>
    <i name="alphaZ">      0.00241580 </i>
    <i name="ewald">      1.49198900 </i>
    <i name="hartreedc">    -17.06724029 </i>
    <i name="XCdc">      3.71442896 </i>
    <i name="pawpsdc">      4.07886115 </i>
    <i name="pawaedc">     -4.09578107 </i>
    <i name="eentropy">     -0.04732076 </i>
    <i name="bandstr">    -13.33442211 </i>
    <i name="atom">     24.97394176 </i>
    <i name="e_fr_energy">     -0.28312756 </i>
    <i name="e_wo_entrp">     -0.23580680 </i>
    <i name="e_0_energy">     -0.25946718 </i>
   </energy>
  </scstep>
  <structure>
   <crystal>
    <varray name="basis" >
     <v>      11.10380000       0.00000000       0.00000000 </v>
     <v>       0.00000000      11.20020000       0.00000000 </v>
     <v>       0.00000000       0.00000000      32.43460000 </v>
    </varray>
    <i name="volume">   4033.72191804 </i>
    <varray name="rec_basis" >
     <v>       0.09005926       0.00000000       0.00000000 </v>
     <v>       0.00000000       0.08928412       0.00000000 </v>
     <v>       0.00000000       0.00000000       0.03083127 </v>
    </varray>
   </crystal>
   <varray name="positions" >
    <v>       0.52732272       0.63307872       0.46211667 </v>
    <v>       0.43134728       0.63160128       0.56953333 </v>
   </varray>
  </structure>
  <varray name="forces" >
   <v>      -0.09204561      -0.00142940       0.30140271 </v>
   <v>       0.09204561       0.00142940      -0.30140271 </v>
  </varray>
  <varray name="stress" >
   <v>      -0.04563573      -0.00060283       0.12743567 </v>
   <v>      -0.00060283      -0.00667253       0.00198018 </v>
   <v>       0.12743567       0.00198018      -0.42338304 </v>
  </varray>
  <energy>
   <i name="e_fr_energy">     -0.28477937 </i>
   <i name="e_wo_entrp">     -0.23745861 </i>
   <i name="e_0_energy">     -0.26111899 </i>
  </energy>
  <time name="totalsc">   35.26   30.16</time>
 </calculation>
 <calculation>
  <scstep>
   <time name="dav">    0.05    0.02</time>
   <time name="total">    2.11    1.73</time>
   <energy>
    <i name="alphaZ">      0.00241580 </i>
    <i name="ewald">      1.59933386 </i>
    <i name="hartreedc">    -17.19103231 </i>
    <i name="XCdc">      3.71792302 </i>
    <i name="pawpsdc">      4.07797622 </i>
    <i name="pawaedc">     -4.09489175 </i>
    <i name="eentropy">     -0.03750719 </i>
    <i name="bandstr">    -13.36027959 </i>
    <i name="atom">     24.97394176 </i>
    <i name="e_fr_energy">     -0.31212017 </i>
    <i name="e_wo_entrp">     -0.27461299 </i>
    <i name="e_0_energy">     -0.29336658 </i>
   </energy>
  </scstep>
  <scstep>
   <time name="diag">    0.03    0.01</time>
   <time name="diis">    0.01    0.01</time>
   <time name="orth">    0.00    0.00</time>
   <time name="total">    2.07    1.71</time>
   <energy>
    <i name="e_fr_energy">     -0.31233554 </i>
    <i name="e_wo_entrp">     -0.27478773 </i>
    <i name="e_0_energy">     -0.29356164 </i>
   </energy>
  </scstep>
  <scstep>
   <time name="diag">    0.04    0.01</time>
   <time name="diis">    0.01    0.01</time>
   <time name="orth">    0.00    0.00</time>
   <time name="total">    2.09    1.70</time>
   <energy>
    <i name="e_fr_energy">     -0.31238396 </i>
    <i name="e_wo_entrp">     -0.27484292 </i>
    <i name="e_0_energy">     -0.29361344 </i>
   </energy>
  </scstep>
  <scstep>
   <time name="diag">    0.02    0.01</time>
   <time name="diis">    0.01    0.01</time>
   <time name="orth">    0.00    0.00</time>
   <time name="total">    2.13    1.71</time>
   <energy>
    <i name="e_fr_energy">     -0.31239589 </i>
    <i name="e_wo_entrp">     -0.27489845 </i>
    <i name="e_0_energy">     -0.29364717 </i>
   </energy>
  </scstep>
  <scstep>
   <time name="diag">    0.03    0.01</time>
   <time name="diis">    0.01    0.01</time>
   <time name="orth">    0.00    0.00</time>
   <time name="total">    2.11    1.71</time>
   <energy>
    <i name="e_fr_energy">     -0.31239921 </i>
    <i name="e_wo_entrp">     -0.27493677 </i>
    <i name="e_0_energy">     -0.29366799 </i>
   </energy>
  </scstep>
  <scstep>
   <time name="diag">    0.04    0.01</time>
   <time name="diis">    0.01    0.01</time>
   <time name="orth">    0.00    0.00</time>
   <time name="total">    0.97    0.83</time>
   <energy>
    <i name="alphaZ">      0.00241580 </i>
    <i name="ewald">      1.59933386 </i>
    <i name="hartreedc">    -17.15844398 </i>
    <i name="XCdc">      3.70892330 </i>
    <i name="pawpsdc">      4.05067407 </i>
    <i name="pawaedc">     -4.06749632 </i>
    <i name="eentropy">     -0.03744798 </i>
    <i name="bandstr">    -13.38430342 </i>
    <i name="atom">     24.97394176 </i>
    <i name="e_fr_energy">     -0.31240291 </i>
    <i name="e_wo_entrp">     -0.27495493 </i>
    <i name="e_0_energy">     -0.29367892 </i>
   </energy>
  </scstep>
  <structure>
   <crystal>
    <varray name="basis" >
     <v>      11.10380000       0.00000000       0.00000000 </v>
     <v>       0.00000000      11.20020000       0.00000000 </v>
     <v>       0.00000000       0.00000000      32.43460000 </v>
    </varray>
    <i name="volume">   4033.72191804 </i>
    <varray name="rec_basis" >
     <v>       0.09005926       0.00000000       0.00000000 </v>
     <v>       0.00000000       0.08928412       0.00000000 </v>
     <v>       0.00000000       0.00000000       0.03083127 </v>
    </varray>
   </crystal>
   <varray name="positions" >
    <v>       0.52618538       0.63306121       0.46339242 </v>
    <v>       0.43248462       0.63161879       0.56825758 </v>
   </varray>
  </structure>
  <varray name="forces" >
   <v>      -0.10698337      -0.00166290       0.35033523 </v>
   <v>       0.10698337       0.00166290      -0.35033523 </v>
  </varray>
  <varray name="stress" >
   <v>      -0.05087736      -0.00068456       0.14482827 </v>
   <v>      -0.00068456      -0.00659420       0.00225002 </v>
   <v>       0.14482827       0.00225002      -0.48012639 </v>
  </varray>
  <energy>
   <i name="e_fr_energy">     -0.31424116 </i>
   <i name="e_wo_entrp">     -0.27679318 </i>
   <i name="e_0_energy">     -0.29551717 </i>
  </energy>
  <time name="totalsc">   35.20   29.82</time>
 </calculation>
 <calculation>
  <scstep>
   <time name="dav">    0.05    0.02</time>
   <time name="total">    2.00    1.69</time>
   <energy>
    <i name="alphaZ">      0.00241580 </i>
    <i name="ewald">      1.82815689 </i>
    <i name="hartreedc">    -17.42708425 </i>
    <i name="XCdc">      3.71779104 </i>
    <i name="pawpsdc">      4.04939542 </i>
    <i name="pawaedc">     -4.06621318 </i>
    <i name="eentropy">     -0.02056639 </i>
    <i name="bandstr">    -13.44153476 </i>
    <i name="atom">     24.97394176 </i>
    <i name="e_fr_energy">     -0.38369766 </i>
    <i name="e_wo_entrp">     -0.36313128 </i>
    <i name="e_0_energy">     -0.37341447 </i>
   </energy>
  </scstep>
  <scstep>
   <time name="diag">    0.03    0.01</time>
   <time name="diis">    0.01    0.01</time>
   <time name="orth">    0.00    0.00</time>
   <time name="total">    2.04    1.70</time>
   <energy>
    <i name="e_fr_energy">     -0.38490403 </i>
    <i name="e_wo_entrp">     -0.36419878 </i>
    <i name="e_0_energy">     -0.37455140 </i>
   </energy>
  </scstep>
  <scstep>
   <time name="diag">    0.03    0.01</time>
   <time name="diis">    0.01    0.01</time>
   <time name="orth">    0.00    0.00</time>
   <time name="total">    2.15    1.73</time>
   <energy>
    <i name="e_fr_energy">     -0.38512724 </i>
    <i name="e_wo_entrp">     -0.36442198 </i>
    <i name="e_0_energy">     -0.37477461 </i>
   </energy>
  </scstep>
  <scstep>
   <time name="diag">    0.02    0.01</time>
   <time name="diis">    0.01    0.01</time>
   <time name="orth">    0.00    0.00</time>
   <time name="total">    2.88    1.78</time>
   <energy>
    <i name="e_fr_energy">     -0.38519872 </i>
    <i name="e_wo_entrp">     -0.36454706 </i>
    <i name="e_0_energy">     -0.37487289 </i>
   </energy>
  </scstep>
  <scstep>
   <time name="diag">    0.03    0.01</time>
   <time name="diis">    0.01    0.01</time>
   <time name="orth">    0.00    0.00</time>
   <time name="total">    2.27    1.71</time>
   <energy>
    <i name="e_fr_energy">     -0.38522007 </i>
    <i name="e_wo_entrp">     -0.36462143 </i>
    <i name="e_0_energy">     -0.37492075 </i>
   </energy>
  </scstep>
  <scstep>
   <time name="diag">    0.03    0.01</time>
   <time name="diis">    0.01    0.01</time>
   <time name="orth">    0.00    0.00</time>
   <time name="total">    0.98    0.83</time>
   <energy>
    <i name="alphaZ">      0.00241580 </i>
    <i name="ewald">      1.82815689 </i>
    <i name="hartreedc">    -17.36250717 </i>
    <i name="XCdc">      3.69969629 </i>
    <i name="pawpsdc">      3.99525838 </i>
    <i name="pawaedc">     -4.01188113 </i>
    <i name="eentropy">     -0.02056989 </i>
    <i name="bandstr">    -13.48974549 </i>
    <i name="atom">     24.97394176 </i>
    <i name="e_fr_energy">     -0.38523455 </i>
    <i name="e_wo_entrp">     -0.36466466 </i>
    <i name="e_0_energy">     -0.37494961 </i>
   </energy>
  </scstep>
  <structure>
   <crystal>
    <varray name="basis" >
     <v>      11.10380000       0.00000000       0.00000000 </v>
     <v>       0.00000000      11.20020000       0.00000000 </v>
     <v>       0.00000000       0.00000000      32.43460000 </v>
    </varray>
    <i name="volume">   4033.72191804 </i>
    <varray name="rec_basis" >
     <v>       0.09005926       0.00000000       0.00000000 </v>
     <v>       0.00000000       0.08928412       0.00000000 </v>
     <v>       0.00000000       0.00000000       0.03083127 </v>
    </varray>
   </crystal>
   <varray name="positions" >
    <v>       0.52391071       0.63302618       0.46594394 </v>
    <v>       0.43475929       0.63165382       0.56570606 </v>
   </varray>
  </structure>
  <varray name="forces" >
   <v>      -0.14116856      -0.00219267       0.46221933 </v>
   <v>       0.14116856       0.00219267      -0.46221933 </v>
  </varray>
  <varray name="stress" >
   <v>      -0.06232061      -0.00086236       0.18208970 </v>
   <v>      -0.00086236      -0.00660329       0.00282911 </v>
   <v>       0.18208970       0.00282911      -0.60180596 </v>
  </varray>
  <energy>
   <i name="e_fr_energy">     -0.38749517 </i>
   <i name="e_wo_entrp">     -0.36692528 </i>
   <i name="e_0_energy">     -0.37721022 </i>
  </energy>
  <time name="totalsc">   35.59   29.65</time>
 </calculation>
 <calculation>
  <scstep>
   <time name="dav">    0.05    0.02</time>
   <time name="total">    1.98    1.67</time>
   <energy>
    <i name="alphaZ">      0.00241580 </i>
    <i name="ewald">      2.35398039 </i>
    <i name="hartreedc">    -17.99390032 </i>
    <i name="XCdc">      3.72552554 </i>
    <i name="pawpsdc">      3.99195077 </i>
    <i name="pawaedc">     -4.00854772 </i>
    <i name="eentropy">     -0.00293803 </i>
    <i name="bandstr">    -13.62997628 </i>
    <i name="atom">     24.97394176 </i>
    <i name="e_fr_energy">     -0.58754808 </i>
    <i name="e_wo_entrp">     -0.58461006 </i>
    <i name="e_0_energy">     -0.58607907 </i>
   </energy>
  </scstep>
  <scstep>
   <time name="diag">    0.03    0.01</time>
   <time name="diis">    0.01    0.01</time>
   <time name="orth">    0.00    0.00</time>
   <time name="total">    1.98    1.68</time>
   <energy>
    <i name="e_fr_energy">     -0.59832715 </i>
    <i name="e_wo_entrp">     -0.59517853 </i>
    <i name="e_0_energy">     -0.59675284 </i>
   </energy>
  </scstep>
  <scstep>
   <time name="diag">    0.02    0.01</time>
   <time name="diis">    0.01    0.01</time>
   <time name="orth">    0.00    0.00</time>
   <time name="total">    2.01    1.69</time>
   <energy>
    <i name="e_fr_energy">     -0.59982337 </i>
    <i name="e_wo_entrp">     -0.59665888 </i>
    <i name="e_0_energy">     -0.59824112 </i>
   </energy>
  </scstep>
  <scstep>
   <time name="diag">    0.03    0.01</time>
   <time name="diis">    0.01    0.01</time>
   <time name="orth">    0.00    0.00</time>
   <time name="total">    2.04    1.68</time>
   <energy>
    <i name="e_fr_energy">     -0.60024801 </i>
    <i name="e_wo_entrp">     -0.59710151 </i>
    <i name="e_0_energy">     -0.59867476 </i>
   </energy>
  </scstep>
  <scstep>
   <time name="diag">    0.03    0.01</time>
   <time name="diis">    0.01    0.01</time>
   <time name="orth">    0.00    0.00</time>
   <time name="total">    2.07    1.72</time>
   <energy>
    <i name="e_fr_energy">     -0.60036829 </i>
    <i name="e_wo_entrp">     -0.59724724 </i>
    <i name="e_0_energy">     -0.59880777 </i>
   </energy>
  </scstep>
  <scstep>
   <time name="diag">    0.04    0.01</time>
   <time name="diis">    0.01    0.01</time>
   <time name="orth">    0.00    0.00</time>
   <time name="total">    0.97    0.82</time>
   <energy>
    <i name="alphaZ">      0.00241580 </i>
    <i name="ewald">      2.35398039 </i>
    <i name="hartreedc">    -17.87434745 </i>
    <i name="XCdc">      3.69087423 </i>
    <i name="pawpsdc">      3.89236861 </i>
    <i name="pawaedc">     -3.90855294 </i>
    <i name="eentropy">     -0.00311612 </i>
    <i name="bandstr">    -13.72796776 </i>
    <i name="atom">     24.97394176 </i>
    <i name="e_fr_energy">     -0.60040350 </i>
    <i name="e_wo_entrp">     -0.59728737 </i>
    <i name="e_0_energy">     -0.59884544 </i>
   </energy>
  </scstep>
  <structure>
   <crystal>
    <varray name="basis" >
     <v>      11.10380000       0.00000000       0.00000000 </v>
     <v>       0.00000000      11.20020000       0.00000000 </v>
     <v>       0.00000000       0.00000000      32.43460000 </v>
    </varray>
    <i name="volume">   4033.72191804 </i>
    <varray name="rec_basis" >
     <v>       0.09005926       0.00000000       0.00000000 </v>
     <v>       0.00000000       0.08928412       0.00000000 </v>
     <v>       0.00000000       0.00000000       0.03083127 </v>
    </varray>
   </crystal>
   <varray name="positions" >
    <v>       0.51936137       0.63295613       0.47104697 </v>
    <v>       0.43930863       0.63172387       0.56060303 </v>
   </varray>
  </structure>
  <varray name="forces" >
   <v>      -0.22833350      -0.00355597       0.74664392 </v>
   <v>       0.22833350       0.00355597      -0.74664392 </v>
  </varray>
  <varray name="stress" >
   <v>      -0.08721690      -0.00125356       0.26375912 </v>
   <v>      -0.00125356      -0.00640832       0.00409662 </v>
   <v>       0.26375912       0.00409662      -0.86824506 </v>
  </varray>
  <energy>
   <i name="e_fr_energy">     -0.60366632 </i>
   <i name="e_wo_entrp">     -0.60055020 </i>
   <i name="e_0_energy">     -0.60210826 </i>
  </energy>
  <time name="totalsc">   34.94   29.67</time>
 </calculation>
 <calculation>
  <scstep>
   <time name="dav">    0.04    0.02</time>
   <time name="total">    2.08    1.71</time>
   <energy>
    <i name="alphaZ">      0.00241580 </i>
    <i name="ewald">      3.82363696 </i>
    <i name="hartreedc">    -19.66246665 </i>
    <i name="XCdc">      3.79404941 </i>
    <i name="pawpsdc">      3.89219719 </i>
    <i name="pawaedc">     -3.90839030 </i>
    <i name="eentropy">     -0.00000030 </i>
    <i name="bandstr">    -14.25190718 </i>
    <i name="atom">     24.97394176 </i>
    <i name="e_fr_energy">     -1.33652332 </i>
    <i name="e_wo_entrp">     -1.33652302 </i>
    <i name="e_0_energy">     -1.33652317 </i>
   </energy>
  </scstep>
  <scstep>
   <time name="diag">    0.03    0.01</time>
   <time name="diis">    0.01    0.01</time>
   <time name="orth">    0.00    0.00</time>
   <time name="total">    2.09    1.71</time>
   <energy>
    <i name="e_fr_energy">     -1.43317751 </i>
    <i name="e_wo_entrp">     -1.43317700 </i>
    <i name="e_0_energy">     -1.43317726 </i>
   </energy>
  </scstep>
  <scstep>
   <time name="diag">    0.02    0.01</time>
   <time name="diis">    0.01    0.01</time>
   <time name="orth">    0.00    0.00</time>
   <time name="total">    2.14    1.71</time>
   <energy>
    <i name="e_fr_energy">     -1.44501032 </i>
    <i name="e_wo_entrp">     -1.44500976 </i>
    <i name="e_0_energy">     -1.44501004 </i>
   </energy>
  </scstep>
  <scstep>
   <time name="diag">    0.03    0.01</time>
   <time name="diis">    0.01    0.01</time>
   <time name="orth">    0.00    0.00</time>
   <time name="total">    2.05    1.69</time>
   <energy>
    <i name="e_fr_energy">     -1.44704810 </i>
    <i name="e_wo_entrp">     -1.44704753 </i>
    <i name="e_0_energy">     -1.44704782 </i>
   </energy>
  </scstep>
  <scstep>
   <time name="diag">    0.03    0.01</time>
   <time name="diis">    0.01    0.01</time>
   <time name="orth">    0.00    0.00</time>
   <time name="total">    2.06    1.71</time>
   <energy>
    <i name="e_fr_energy">     -1.44742268 </i>
    <i name="e_wo_entrp">     -1.44742211 </i>
    <i name="e_0_energy">     -1.44742239 </i>
   </energy>
  </scstep>
  <scstep>
   <time name="diag">    0.02    0.01</time>
   <time name="diis">    0.01    0.01</time>
   <time name="orth">    0.00    0.00</time>
   <time name="total">    1.00    0.84</time>
   <energy>
    <i name="alphaZ">      0.00241580 </i>
    <i name="ewald">      3.82363696 </i>
    <i name="hartreedc">    -19.56052341 </i>
    <i name="XCdc">      3.74728853 </i>
    <i name="pawpsdc">      3.84757272 </i>
    <i name="pawaedc">     -3.86299960 </i>
    <i name="eentropy">     -0.00000057 </i>
    <i name="bandstr">    -14.41884595 </i>
    <i name="atom">     24.97394176 </i>
    <i name="e_fr_energy">     -1.44751376 </i>
    <i name="e_wo_entrp">     -1.44751319 </i>
    <i name="e_0_energy">     -1.44751348 </i>
   </energy>
  </scstep>
  <structure>
   <crystal>
    <varray name="basis" >
     <v>      11.10380000       0.00000000       0.00000000 </v>
     <v>       0.00000000      11.20020000       0.00000000 </v>
     <v>       0.00000000       0.00000000      32.43460000 </v>
    </varray>
    <i name="volume">   4033.72191804 </i>
    <varray name="rec_basis" >
     <v>       0.09005926       0.00000000       0.00000000 </v>
     <v>       0.00000000       0.08928412       0.00000000 </v>
     <v>       0.00000000       0.00000000       0.03083127 </v>
    </varray>
   </crystal>
   <varray name="positions" >
    <v>       0.51026268       0.63281601       0.48125303 </v>
    <v>       0.44840732       0.63186399       0.55039697 </v>
   </varray>
  </structure>
  <varray name="forces" >
   <v>      -0.52321438      -0.00812837       1.70907998 </v>
   <v>       0.52321438       0.00812837      -1.70907998 </v>
  </varray>
  <varray name="stress" >
   <v>      -0.14902778      -0.00222213       0.46716808 </v>
   <v>      -0.00222213      -0.00591091       0.00725258 </v>
   <v>       0.46716808       0.00725258      -1.53068218 </v>
  </varray>
  <energy>
   <i name="e_fr_energy">     -1.45260777 </i>
   <i name="e_wo_entrp">     -1.45260720 </i>
   <i name="e_0_energy">     -1.45260749 </i>
  </energy>
  <time name="totalsc">   35.15   29.83</time>
 </calculation>
 <calculation>
  <scstep>
   <time name="dav">    0.03    0.02</time>
   <time name="total">    2.02    1.68</time>
   <energy>
    <i name="alphaZ">      0.00241580 </i>
    <i name="ewald">     12.75765801 </i>
    <i name="hartreedc">    -26.62676825 </i>
    <i name="XCdc">      4.42216835 </i>
    <i name="pawpsdc">      3.84297145 </i>
    <i name="pawaedc">     -3.85849770 </i>
    <i name="eentropy">     -0.00000000 </i>
    <i name="bandstr">    -20.55785317 </i>
    <i name="atom">     24.97394176 </i>
    <i name="e_fr_energy">     -5.04396375 </i>
    <i name="e_wo_entrp">     -5.04396375 </i>
    <i name="e_0_energy">     -5.04396375 </i>
   </energy>
  </scstep>
  <scstep>
   <time name="diag">    0.03    0.01</time>
   <time name="diis">    0.01    0.01</time>
   <time name="orth">    0.00    0.00</time>
   <time name="total">    2.05    1.69</time>
   <energy>
    <i name="e_fr_energy">     -6.15867965 </i>
    <i name="e_wo_entrp">     -6.15867965 </i>
    <i name="e_0_energy">     -6.15867965 </i>
   </energy>
  </scstep>
  <scstep>
   <time name="diag">    0.04    0.01</time>
   <time name="diis">    0.01    0.01</time>
   <time name="orth">    0.00    0.00</time>
   <time name="total">    2.06    1.70</time>
   <energy>
    <i name="e_fr_energy">     -6.30912768 </i>
    <i name="e_wo_entrp">     -6.30912768 </i>
    <i name="e_0_energy">     -6.30912768 </i>
   </energy>
  </scstep>
  <scstep>
   <time name="diag">    0.03    0.01</time>
   <time name="diis">    0.01    0.01</time>
   <time name="orth">    0.00    0.00</time>
   <time name="total">    2.31    1.83</time>
   <energy>
    <i name="e_fr_energy">     -6.24681060 </i>
    <i name="e_wo_entrp">     -6.24681060 </i>
    <i name="e_0_energy">     -6.24681060 </i>
   </energy>
  </scstep>
  <scstep>
   <time name="diag">    0.03    0.01</time>
   <time name="diis">    0.01    0.01</time>
   <time name="orth">    0.00    0.00</time>
   <time name="total">    2.03    1.70</time>
   <energy>
    <i name="e_fr_energy">     -6.25891276 </i>
    <i name="e_wo_entrp">     -6.25891276 </i>
    <i name="e_0_energy">     -6.25891276 </i>
   </energy>
  </scstep>
  <scstep>
   <time name="diag">    0.04    0.01</time>
   <time name="diis">    0.01    0.01</time>
   <time name="orth">    0.00    0.00</time>
   <time name="total">    2.10    1.71</time>
   <energy>
    <i name="e_fr_energy">     -6.26406880 </i>
    <i name="e_wo_entrp">     -6.26406880 </i>
    <i name="e_0_energy">     -6.26406880 </i>
   </energy>
  </scstep>
  <scstep>
   <time name="diag">    0.03    0.01</time>
   <time name="diis">    0.01    0.01</time>
   <time name="orth">    0.00    0.00</time>
   <time name="total">    2.06    1.73</time>
   <energy>
    <i name="e_fr_energy">     -6.26054416 </i>
    <i name="e_wo_entrp">     -6.26054416 </i>
    <i name="e_0_energy">     -6.26054416 </i>
   </energy>
  </scstep>
  <scstep>
   <time name="diag">    0.02    0.01</time>
   <time name="diis">    0.01    0.01</time>
   <time name="orth">    0.00    0.00</time>
   <time name="total">    2.11    1.73</time>
   <energy>
    <i name="e_fr_energy">     -6.25950348 </i>
    <i name="e_wo_entrp">     -6.25950348 </i>
    <i name="e_0_energy">     -6.25950348 </i>
   </energy>
  </scstep>
  <scstep>
   <time name="diag">    0.03    0.01</time>
   <time name="diis">    0.01    0.01</time>
   <time name="orth">    0.00    0.00</time>
   <time name="total">    2.02    1.71</time>
   <energy>
    <i name="e_fr_energy">     -6.25996352 </i>
    <i name="e_wo_entrp">     -6.25996352 </i>
    <i name="e_0_energy">     -6.25996352 </i>
   </energy>
  </scstep>
  <scstep>
   <time name="diag">    0.03    0.01</time>
   <time name="diis">    0.01    0.01</time>
   <time name="orth">    0.00    0.00</time>
   <time name="total">    2.10    1.71</time>
   <energy>
    <i name="e_fr_energy">     -6.26027781 </i>
    <i name="e_wo_entrp">     -6.26027781 </i>
    <i name="e_0_energy">     -6.26027781 </i>
   </energy>
  </scstep>
  <scstep>
   <time name="diag">    0.03    0.01</time>
   <time name="diis">    0.01    0.01</time>
   <time name="orth">    0.00    0.00</time>
   <time name="total">    2.04    1.70</time>
   <energy>
    <i name="e_fr_energy">     -6.26063705 </i>
    <i name="e_wo_entrp">     -6.26063705 </i>
    <i name="e_0_energy">     -6.26063705 </i>
   </energy>
  </scstep>
  <scstep>
   <time name="diag">    0.03    0.01</time>
   <time name="diis">    0.01    0.01</time>
   <time name="orth">    0.00    0.00</time>
   <time name="total">    2.06    1.74</time>
   <energy>
    <i name="e_fr_energy">     -6.26080096 </i>
    <i name="e_wo_entrp">     -6.26080096 </i>
    <i name="e_0_energy">     -6.26080096 </i>
   </energy>
  </scstep>
  <scstep>
   <time name="diag">    0.04    0.01</time>
   <time name="diis">    0.01    0.01</time>
   <time name="orth">    0.00    0.00</time>
   <time name="total">    0.98    0.83</time>
   <energy>
    <i name="alphaZ">      0.00241580 </i>
    <i name="ewald">     12.75765801 </i>
    <i name="hartreedc">    -29.92079870 </i>
    <i name="XCdc">      4.86135831 </i>
    <i name="pawpsdc">     13.48757773 </i>
    <i name="pawaedc">    -13.51859496 </i>
    <i name="eentropy">     -0.00000000 </i>
    <i name="bandstr">    -18.90445878 </i>
    <i name="atom">     24.97394176 </i>
    <i name="e_fr_energy">     -6.26090082 </i>
    <i name="e_wo_entrp">     -6.26090082 </i>
    <i name="e_0_energy">     -6.26090082 </i>
   </energy>
  </scstep>
  <structure>
   <crystal>
    <varray name="basis" >
     <v>      11.10380000       0.00000000       0.00000000 </v>
     <v>       0.00000000      11.20020000       0.00000000 </v>
     <v>       0.00000000       0.00000000      32.43460000 </v>
    </varray>
    <i name="volume">   4033.72191804 </i>
    <varray name="rec_basis" >
     <v>       0.09005926       0.00000000       0.00000000 </v>
     <v>       0.00000000       0.08928412       0.00000000 </v>
     <v>       0.00000000       0.00000000       0.03083127 </v>
    </varray>
   </crystal>
   <varray name="positions" >
    <v>       0.49206531       0.63253579       0.50166514 </v>
    <v>       0.46660469       0.63214421       0.52998486 </v>
   </varray>
  </structure>
  <varray name="forces" >
   <v>      -1.15894014      -0.01797654       3.76545571 </v>
   <v>       1.15894014       0.01797654      -3.76545571 </v>
  </varray>
  <varray name="stress" >
   <v>      -0.13939378      -0.00201587       0.42204040 </v>
   <v>      -0.00201587      -0.00954197       0.00654794 </v>
   <v>       0.42204040       0.00654794      -1.38076848 </v>
  </varray>
  <energy>
   <i name="e_fr_energy">     -6.26653169 </i>
   <i name="e_wo_entrp">     -6.26653169 </i>
   <i name="e_0_energy">     -6.26653169 </i>
  </energy>
  <time name="totalsc">   49.58   41.76</time>
 </calculation>
 <calculation>
  <scstep>
   <time name="dav">    0.05    0.02</time>
   <time name="total">    2.02    1.69</time>
   <energy>
    <i name="alphaZ">      0.00241580 </i>
    <i name="ewald">      5.69307044 </i>
    <i name="hartreedc">    -23.81769936 </i>
    <i name="XCdc">      4.23576336 </i>
    <i name="pawpsdc">     13.48706440 </i>
    <i name="pawaedc">    -13.51804591 </i>
    <i name="eentropy">     -0.00000000 </i>
    <i name="bandstr">    -13.62802822 </i>
    <i name="atom">     24.97394176 </i>
    <i name="e_fr_energy">     -2.57151773 </i>
    <i name="e_wo_entrp">     -2.57151773 </i>
    <i name="e_0_energy">     -2.57151773 </i>
   </energy>
  </scstep>
  <scstep>
   <time name="diag">    0.03    0.01</time>
   <time name="diis">    0.01    0.01</time>
   <time name="orth">    0.00    0.00</time>
   <time name="total">    2.04    1.71</time>
   <energy>
    <i name="e_fr_energy">     -2.71543816 </i>
    <i name="e_wo_entrp">     -2.71543816 </i>
    <i name="e_0_energy">     -2.71543816 </i>
   </energy>
  </scstep>
  <scstep>
   <time name="diag">    0.03    0.01</time>
   <time name="diis">    0.01    0.01</time>
   <time name="orth">    0.00    0.00</time>
   <time name="total">    2.02    1.69</time>
   <energy>
    <i name="e_fr_energy">     -2.73918334 </i>
    <i name="e_wo_entrp">     -2.73918334 </i>
    <i name="e_0_energy">     -2.73918334 </i>
   </energy>
  </scstep>
  <scstep>
   <time name="diag">    0.03    0.01</time>
   <time name="diis">    0.01    0.01</time>
   <time name="orth">    0.00    0.00</time>
   <time name="total">    2.03    1.69</time>
   <energy>
    <i name="e_fr_energy">     -2.74753717 </i>
    <i name="e_wo_entrp">     -2.74753717 </i>
    <i name="e_0_energy">     -2.74753717 </i>
   </energy>
  </scstep>
  <scstep>
   <time name="diag">    0.02    0.01</time>
   <time name="diis">    0.01    0.01</time>
   <time name="orth">    0.00    0.00</time>
   <time name="total">    2.14    1.72</time>
   <energy>
    <i name="e_fr_energy">     -2.74976870 </i>
    <i name="e_wo_entrp">     -2.74976870 </i>
    <i name="e_0_energy">     -2.74976870 </i>
   </energy>
  </scstep>
  <scstep>
   <time name="diag">    0.02    0.01</time>
   <time name="diis">    0.01    0.01</time>
   <time name="orth">    0.00    0.00</time>
   <time name="total">    2.05    1.71</time>
   <energy>
    <i name="e_fr_energy">     -2.75007505 </i>
    <i name="e_wo_entrp">     -2.75007505 </i>
    <i name="e_0_energy">     -2.75007505 </i>
   </energy>
  </scstep>
  <scstep>
   <time name="diag">    0.02    0.01</time>
   <time name="diis">    0.01    0.01</time>
   <time name="orth">    0.00    0.00</time>
   <time name="total">    2.12    1.73</time>
   <energy>
    <i name="e_fr_energy">     -2.75023298 </i>
    <i name="e_wo_entrp">     -2.75023298 </i>
    <i name="e_0_energy">     -2.75023298 </i>
   </energy>
  </scstep>
  <scstep>
   <time name="diag">    0.02    0.01</time>
   <time name="diis">    0.01    0.01</time>
   <time name="orth">    0.00    0.00</time>
   <time name="total">    2.13    1.72</time>
   <energy>
    <i name="e_fr_energy">     -2.75035233 </i>
    <i name="e_wo_entrp">     -2.75035233 </i>
    <i name="e_0_energy">     -2.75035233 </i>
   </energy>
  </scstep>
  <scstep>
   <time name="diag">    0.03    0.01</time>
   <time name="diis">    0.01    0.01</time>
   <time name="orth">    0.00    0.00</time>
   <time name="total">    1.04    0.83</time>
   <energy>
    <i name="alphaZ">      0.00241580 </i>
    <i name="ewald">      5.69307044 </i>
    <i name="hartreedc">    -22.01232123 </i>
    <i name="XCdc">      3.94499879 </i>
    <i name="pawpsdc">      4.38582175 </i>
    <i name="pawaedc">     -4.40175572 </i>
    <i name="eentropy">     -0.00000000 </i>
    <i name="bandstr">    -15.33661148 </i>
    <i name="atom">     24.97394176 </i>
    <i name="e_fr_energy">     -2.75043989 </i>
    <i name="e_wo_entrp">     -2.75043989 </i>
    <i name="e_0_energy">     -2.75043989 </i>
   </energy>
  </scstep>
  <structure>
   <crystal>
    <varray name="basis" >
     <v>      11.10380000       0.00000000       0.00000000 </v>
     <v>       0.00000000      11.20020000       0.00000000 </v>
     <v>       0.00000000       0.00000000      32.43460000 </v>
    </varray>
    <i name="volume">   4033.72191804 </i>
    <varray name="rec_basis" >
     <v>       0.09005926       0.00000000       0.00000000 </v>
     <v>       0.00000000       0.08928412       0.00000000 </v>
     <v>       0.00000000       0.00000000       0.03083127 </v>
    </varray>
   </crystal>
   <varray name="positions" >
    <v>       0.45567056       0.63197535       0.54248938 </v>
    <v>       0.50299944       0.63270465       0.48916062 </v>
   </varray>
  </structure>
  <varray name="forces" >
   <v>       0.91343237       0.01419239      -3.00684021 </v>
   <v>      -0.91343237      -0.01419239       3.00684021 </v>
  </varray>
  <varray name="stress" >
   <v>      -0.19803578      -0.00296326       0.62790080 </v>
   <v>      -0.00296326      -0.00733338       0.00975890 </v>
   <v>       0.62790080       0.00975890      -2.07407523 </v>
  </varray>
  <energy>
   <i name="e_fr_energy">     -2.75615183 </i>
   <i name="e_wo_entrp">     -2.75615183 </i>
   <i name="e_0_energy">     -2.75615183 </i>
  </energy>
  <time name="totalsc">   41.54   35.08</time>
 </calculation>
 <calculation>
  <scstep>
   <time name="dav">    0.05    0.02</time>
   <time name="total">    2.29    1.72</time>
   <energy>
    <i name="alphaZ">      0.00241580 </i>
    <i name="ewald">     22.64760445 </i>
    <i name="hartreedc">    -29.81812173 </i>
    <i name="XCdc">      4.82142356 </i>
    <i name="pawpsdc">      4.39187725 </i>
    <i name="pawaedc">     -4.40781912 </i>
    <i name="eentropy">     -0.00000000 </i>
    <i name="bandstr">    -27.18673770 </i>
    <i name="atom">     24.97394176 </i>
    <i name="e_fr_energy">     -4.57541575 </i>
    <i name="e_wo_entrp">     -4.57541575 </i>
    <i name="e_0_energy">     -4.57541575 </i>
   </energy>
  </scstep>
  <scstep>
   <time name="diag">    0.04    0.01</time>
   <time name="diis">    0.01    0.01</time>
   <time name="orth">    0.00    0.00</time>
   <time name="total">    2.08    1.70</time>
   <energy>
    <i name="e_fr_energy">     -6.16328460 </i>
    <i name="e_wo_entrp">     -6.16328460 </i>
    <i name="e_0_energy">     -6.16328460 </i>
   </energy>
  </scstep>
  <scstep>
   <time name="diag">    0.03    0.01</time>
   <time name="diis">    0.01    0.01</time>
   <time name="orth">    0.00    0.00</time>
   <time name="total">    2.08    1.71</time>
   <energy>
    <i name="e_fr_energy">     -6.32173913 </i>
    <i name="e_wo_entrp">     -6.32173913 </i>
    <i name="e_0_energy">     -6.32173913 </i>
   </energy>
  </scstep>
  <scstep>
   <time name="diag">    0.02    0.01</time>
   <time name="diis">    0.01    0.01</time>
   <time name="orth">    0.00    0.00</time>
   <time name="total">    2.12    1.73</time>
   <energy>
    <i name="e_fr_energy">     -6.30863081 </i>
    <i name="e_wo_entrp">     -6.30863081 </i>
    <i name="e_0_energy">     -6.30863081 </i>
   </energy>
  </scstep>
  <scstep>
   <time name="diag">    0.03    0.01</time>
   <time name="diis">    0.02    0.10</time>
   <time name="orth">    0.00    0.00</time>
   <time name="total">    2.07    1.79</time>
   <energy>
    <i name="e_fr_energy">     25.67427297 </i>
    <i name="e_wo_entrp">     25.80941120 </i>
    <i name="e_0_energy">     25.74184208 </i>
   </energy>
  </scstep>
  <scstep>
   <time name="diag">    0.03    0.01</time>
   <time name="diis">    0.02    0.02</time>
   <time name="orth">    0.00    0.00</time>
   <time name="total">    2.10    1.72</time>
   <energy>
    <i name="e_fr_energy">      2.76111229 </i>
    <i name="e_wo_entrp">      2.76111229 </i>
    <i name="e_0_energy">      2.76111229 </i>
   </energy>
  </scstep>
  <scstep>
   <time name="diag">    0.03    0.01</time>
   <time name="diis">    0.02    0.02</time>
   <time name="orth">    0.00    0.00</time>
   <time name="total">    2.09    1.71</time>
   <energy>
    <i name="e_fr_energy">     -8.57510470 </i>
    <i name="e_wo_entrp">     -8.57510470 </i>
    <i name="e_0_energy">     -8.57510470 </i>
   </energy>
  </scstep>
  <scstep>
   <time name="diag">    0.02    0.01</time>
   <time name="diis">    0.01    0.01</time>
   <time name="orth">    0.00    0.00</time>
   <time name="total">    2.32    1.74</time>
   <energy>
    <i name="e_fr_energy">     -5.30824916 </i>
    <i name="e_wo_entrp">     -5.30824916 </i>
    <i name="e_0_energy">     -5.30824916 </i>
   </energy>
  </scstep>
  <scstep>
   <time name="diag">    0.03    0.01</time>
   <time name="diis">    0.02    0.02</time>
   <time name="orth">    0.00    0.00</time>
   <time name="total">    2.12    1.72</time>
   <energy>
    <i name="e_fr_energy">     25.90893456 </i>
    <i name="e_wo_entrp">     26.02163710 </i>
    <i name="e_0_energy">     25.96528583 </i>
   </energy>
  </scstep>
  <scstep>
   <time name="diag">    0.04    0.01</time>
   <time name="diis">    0.02    0.02</time>
   <time name="orth">    0.00    0.00</time>
   <time name="total">    2.23    1.74</time>
   <energy>
    <i name="e_fr_energy">     -1.94014416 </i>
    <i name="e_wo_entrp">     -1.94014416 </i>
    <i name="e_0_energy">     -1.94014416 </i>
   </energy>
  </scstep>
  <scstep>
   <time name="diag">    0.02    0.01</time>
   <time name="diis">    0.02    0.02</time>
   <time name="orth">    0.00    0.00</time>
   <time name="total">    2.15    1.73</time>
   <energy>
    <i name="e_fr_energy">      8.68888059 </i>
    <i name="e_wo_entrp">      8.68888059 </i>
    <i name="e_0_energy">      8.68888059 </i>
   </energy>
  </scstep>
  <scstep>
   <time name="diag">    0.04    0.01</time>
   <time name="diis">    0.02    0.02</time>
   <time name="orth">    0.00    0.00</time>
   <time name="total">    2.27    1.75</time>
   <energy>
    <i name="e_fr_energy">   -801.75844859 </i>
    <i name="e_wo_entrp">   -801.75844859 </i>
    <i name="e_0_energy">   -801.75844859 </i>
   </energy>
  </scstep>
  <scstep>
   <time name="diag">    0.04    0.01</time>
   <time name="diis">    0.02    0.02</time>
   <time name="orth">    0.00    0.00</time>
   <time name="total">    2.12    1.73</time>
   <energy>
    <i name="e_fr_energy">     13.36295346 </i>
    <i name="e_wo_entrp">     13.36295346 </i>
    <i name="e_0_energy">     13.36295346 </i>
   </energy>
  </scstep>
  <scstep>
   <time name="diag">    0.02    0.01</time>
   <time name="diis">    0.02    0.02</time>
   <time name="orth">    0.00    0.00</time>
   <time name="total">    2.19    1.75</time>
   <energy>
    <i name="e_fr_energy">   -685.70105952 </i>
    <i name="e_wo_entrp">   -685.70105952 </i>
    <i name="e_0_energy">   -685.70105952 </i>
   </energy>
  </scstep>
  <scstep>
   <time name="diag">    0.03    0.01</time>
   <time name="diis">    0.02    0.02</time>
   <time name="orth">    0.00    0.00</time>
   <time name="total">    2.12    1.74</time>
   <energy>
    <i name="e_fr_energy">  -1407.93915459 </i>
    <i name="e_wo_entrp">  -1407.93915459 </i>
    <i name="e_0_energy">  -1407.93915459 </i>
   </energy>
  </scstep>
  <scstep>
   <time name="diag">    0.03    0.01</time>
   <time name="diis">    0.02    0.02</time>
   <time name="orth">    0.00    0.00</time>
   <time name="total">    2.15    1.75</time>
   <energy>
    <i name="e_fr_energy">     21.90881021 </i>
    <i name="e_wo_entrp">     21.90881078 </i>
    <i name="e_0_energy">     21.90881049 </i>
   </energy>
  </scstep>
  <scstep>
   <time name="diag">    0.04    0.01</time>
   <time name="diis">    0.02    0.02</time>
   <time name="orth">    0.00    0.00</time>
   <time name="total">    2.13    1.74</time>
   <energy>
    <i name="e_fr_energy">     11.00633000 </i>
    <i name="e_wo_entrp">     11.00633000 </i>
    <i name="e_0_energy">     11.00633000 </i>
   </energy>
  </scstep>
  <scstep>
   <time name="diag">    0.03    0.01</time>
   <time name="diis">    0.02    0.02</time>
   <time name="orth">    0.00    0.00</time>
   <time name="total">    2.15    1.73</time>
   <energy>
    <i name="e_fr_energy">     -3.91248698 </i>
    <i name="e_wo_entrp">     -3.91248698 </i>
    <i name="e_0_energy">     -3.91248698 </i>
   </energy>
  </scstep>
  <scstep>
   <time name="diag">    0.02    0.01</time>
   <time name="diis">    0.02    0.02</time>
   <time name="orth">    0.00    0.00</time>
   <time name="total">    2.18    1.75</time>
   <energy>
    <i name="e_fr_energy">     -6.43394313 </i>
    <i name="e_wo_entrp">     -6.43394313 </i>
    <i name="e_0_energy">     -6.43394313 </i>
   </energy>
  </scstep>
  <scstep>
   <time name="diag">    0.03    0.01</time>
   <time name="diis">    0.02    0.01</time>
   <time name="orth">    0.00    0.00</time>
   <time name="total">    2.12    1.75</time>
   <energy>
    <i name="e_fr_energy">     -6.01601653 </i>
    <i name="e_wo_entrp">     -6.01601653 </i>
    <i name="e_0_energy">     -6.01601653 </i>
   </energy>
  </scstep>
  <scstep>
   <time name="diag">    0.02    0.01</time>
   <time name="diis">    0.01    0.01</time>
   <time name="orth">    0.00    0.00</time>
   <time name="total">    2.13    1.76</time>
   <energy>
    <i name="e_fr_energy">     -6.00062248 </i>
    <i name="e_wo_entrp">     -6.00062248 </i>
    <i name="e_0_energy">     -6.00062248 </i>
   </energy>
  </scstep>
  <scstep>
   <time name="diag">    0.02    0.01</time>
   <time name="diis">    0.01    0.01</time>
   <time name="orth">    0.00    0.00</time>
   <time name="total">    2.17    1.76</time>
   <energy>
    <i name="e_fr_energy">     -5.99758613 </i>
    <i name="e_wo_entrp">     -5.99758613 </i>
    <i name="e_0_energy">     -5.99758613 </i>
   </energy>
  </scstep>
  <scstep>
   <time name="diag">    0.03    0.01</time>
   <time name="diis">    0.01    0.01</time>
   <time name="orth">    0.00    0.00</time>
   <time name="total">    2.17    1.74</time>
   <energy>
    <i name="e_fr_energy">     -5.99985743 </i>
    <i name="e_wo_entrp">     -5.99985743 </i>
    <i name="e_0_energy">     -5.99985743 </i>
   </energy>
  </scstep>
  <scstep>
   <time name="diag">    0.03    0.01</time>
   <time name="diis">    0.01    0.01</time>
   <time name="orth">    0.00    0.00</time>
   <time name="total">    2.07    1.73</time>
   <energy>
    <i name="e_fr_energy">     -6.00164917 </i>
    <i name="e_wo_entrp">     -6.00164917 </i>
    <i name="e_0_energy">     -6.00164917 </i>
   </energy>
  </scstep>
  <scstep>
   <time name="diag">    0.02    0.01</time>
   <time name="diis">    0.01    0.01</time>
   <time name="orth">    0.00    0.00</time>
   <time name="total">    2.16    1.73</time>
   <energy>
    <i name="e_fr_energy">     -6.00418529 </i>
    <i name="e_wo_entrp">     -6.00418529 </i>
    <i name="e_0_energy">     -6.00418529 </i>
   </energy>
  </scstep>
  <scstep>
   <time name="diag">    0.04    0.01</time>
   <time name="diis">    0.01    0.01</time>
   <time name="orth">    0.00    0.00</time>
   <time name="total">    2.06    1.73</time>
   <energy>
    <i name="e_fr_energy">     -6.00330062 </i>
    <i name="e_wo_entrp">     -6.00330062 </i>
    <i name="e_0_energy">     -6.00330062 </i>
   </energy>
  </scstep>
  <scstep>
   <time name="diag">    0.04    0.01</time>
   <time name="diis">    0.01    0.01</time>
   <time name="orth">    0.00    0.00</time>
   <time name="total">    2.11    1.73</time>
   <energy>
    <i name="e_fr_energy">     -6.00355303 </i>
    <i name="e_wo_entrp">     -6.00355303 </i>
    <i name="e_0_energy">     -6.00355303 </i>
   </energy>
  </scstep>
  <scstep>
   <time name="diag">    0.03    0.01</time>
   <time name="diis">    0.01    0.01</time>
   <time name="orth">    0.00    0.00</time>
   <time name="total">    2.14    1.77</time>
   <energy>
    <i name="e_fr_energy">     -6.00416349 </i>
    <i name="e_wo_entrp">     -6.00416349 </i>
    <i name="e_0_energy">     -6.00416349 </i>
   </energy>
  </scstep>
  <scstep>
   <time name="diag">    0.04    0.01</time>
   <time name="diis">    0.01    0.01</time>
   <time name="orth">    0.00    0.00</time>
   <time name="total">    1.03    0.84</time>
   <energy>
    <i name="alphaZ">      0.00241580 </i>
    <i name="ewald">     22.64760445 </i>
    <i name="hartreedc">    -36.33820235 </i>
    <i name="XCdc">      5.72138597 </i>
    <i name="pawpsdc">     34.21594591 </i>
    <i name="pawaedc">    -34.30372854 </i>
    <i name="eentropy">     -0.00000000 </i>
    <i name="bandstr">    -22.92347142 </i>
    <i name="atom">     24.97394176 </i>
    <i name="e_fr_energy">     -6.00410844 </i>
    <i name="e_wo_entrp">     -6.00410844 </i>
    <i name="e_0_energy">     -6.00410844 </i>
   </energy>
  </scstep>
  <structure>
   <crystal>
    <varray name="basis" >
     <v>      11.10380000       0.00000000       0.00000000 </v>
     <v>       0.00000000      11.20020000       0.00000000 </v>
     <v>       0.00000000       0.00000000      32.43460000 </v>
    </varray>
    <i name="volume">   4033.72191804 </i>
    <varray name="rec_basis" >
     <v>       0.09005926       0.00000000       0.00000000 </v>
     <v>       0.00000000       0.08928412       0.00000000 </v>
     <v>       0.00000000       0.00000000       0.03083127 </v>
    </varray>
   </crystal>
   <varray name="positions" >
    <v>       0.47181948       0.63222403       0.52437502 </v>
    <v>       0.48685052       0.63245597       0.50727498 </v>
   </varray>
  </structure>
  <varray name="forces" >
   <v>      -3.17418627      -0.04941305      10.54906164 </v>
   <v>       3.17418627       0.04941305     -10.54906164 </v>
  </varray>
  <varray name="stress" >
   <v>       0.24207712       0.00327815      -0.69828197 </v>
   <v>       0.00327815       0.03196669      -0.01088283 </v>
   <v>      -0.69828197      -0.01088283       2.35240237 </v>
  </varray>
  <energy>
   <i name="e_fr_energy">     -6.00657022 </i>
   <i name="e_wo_entrp">     -6.00657022 </i>
   <i name="e_0_energy">     -6.00657022 </i>
  </energy>
  <time name="totalsc">   85.11   70.08</time>
 </calculation>
 <calculation>
  <scstep>
   <time name="dav">    0.03    0.02</time>
   <time name="total">    2.00    1.71</time>
   <energy>
    <i name="alphaZ">      0.00241580 </i>
    <i name="ewald">      7.12605925 </i>
    <i name="hartreedc">    -27.68399962 </i>
    <i name="XCdc">      4.77075440 </i>
    <i name="pawpsdc">     34.21251820 </i>
    <i name="pawaedc">    -34.29999666 </i>
    <i name="eentropy">     -0.00000000 </i>
    <i name="bandstr">    -12.89691322 </i>
    <i name="atom">     24.97394176 </i>
    <i name="e_fr_energy">     -3.79522010 </i>
    <i name="e_wo_entrp">     -3.79522010 </i>
    <i name="e_0_energy">     -3.79522010 </i>
   </energy>
  </scstep>
  <scstep>
   <time name="diag">    0.03    0.01</time>
   <time name="diis">    0.01    0.01</time>
   <time name="orth">    0.00    0.00</time>
   <time name="total">    2.00    1.70</time>
   <energy>
    <i name="e_fr_energy">     -3.71167315 </i>
    <i name="e_wo_entrp">     -3.71167315 </i>
    <i name="e_0_energy">     -3.71167315 </i>
   </energy>
  </scstep>
  <scstep>
   <time name="diag">    0.04    0.01</time>
   <time name="diis">    0.01    0.01</time>
   <time name="orth">    0.00    0.00</time>
   <time name="total">    2.07    1.69</time>
   <energy>
    <i name="e_fr_energy">     -3.70339074 </i>
    <i name="e_wo_entrp">     -3.70339074 </i>
    <i name="e_0_energy">     -3.70339074 </i>
   </energy>
  </scstep>
  <scstep>
   <time name="diag">    0.01    0.01</time>
   <time name="diis">    0.01    0.01</time>
   <time name="orth">    0.00    0.00</time>
   <time name="total">    2.18    1.72</time>
   <energy>
    <i name="e_fr_energy">     -3.71632388 </i>
    <i name="e_wo_entrp">     -3.71632388 </i>
    <i name="e_0_energy">     -3.71632388 </i>
   </energy>
  </scstep>
  <scstep>
   <time name="diag">    0.02    0.01</time>
   <time name="diis">    0.01    0.01</time>
   <time name="orth">    0.00    0.00</time>
   <time name="total">    2.12    1.72</time>
   <energy>
    <i name="e_fr_energy">     -3.71919164 </i>
    <i name="e_wo_entrp">     -3.71919164 </i>
    <i name="e_0_energy">     -3.71919164 </i>
   </energy>
  </scstep>
  <scstep>
   <time name="diag">    0.03    0.01</time>
   <time name="diis">    0.01    0.01</time>
   <time name="orth">    0.00    0.00</time>
   <time name="total">    2.06    1.69</time>
   <energy>
    <i name="e_fr_energy">     -3.71955161 </i>
    <i name="e_wo_entrp">     -3.71955161 </i>
    <i name="e_0_energy">     -3.71955161 </i>
   </energy>
  </scstep>
  <scstep>
   <time name="diag">    0.04    0.01</time>
   <time name="diis">    0.01    0.01</time>
   <time name="orth">    0.00    0.00</time>
   <time name="total">    2.10    1.70</time>
   <energy>
    <i name="e_fr_energy">     -3.72019791 </i>
    <i name="e_wo_entrp">     -3.72019791 </i>
    <i name="e_0_energy">     -3.72019791 </i>
   </energy>
  </scstep>
  <scstep>
   <time name="diag">    0.01    0.01</time>
   <time name="diis">    0.01    0.01</time>
   <time name="orth">    0.00    0.00</time>
   <time name="total">    0.97    0.83</time>
   <energy>
    <i name="alphaZ">      0.00241580 </i>
    <i name="ewald">      7.12605925 </i>
    <i name="hartreedc">    -23.82582525 </i>
    <i name="XCdc">      4.13230775 </i>
    <i name="pawpsdc">      5.31658266 </i>
    <i name="pawaedc">     -5.33390758 </i>
    <i name="eentropy">     -0.00000000 </i>
    <i name="bandstr">    -16.11181358 </i>
    <i name="atom">     24.97394176 </i>
    <i name="e_fr_energy">     -3.72023918 </i>
    <i name="e_wo_entrp">     -3.72023918 </i>
    <i name="e_0_energy">     -3.72023918 </i>
   </energy>
  </scstep>
  <structure>
   <crystal>
    <varray name="basis" >
     <v>      11.10380000       0.00000000       0.00000000 </v>
     <v>       0.00000000      11.20020000       0.00000000 </v>
     <v>       0.00000000       0.00000000      32.43460000 </v>
    </varray>
    <i name="volume">   4033.72191804 </i>
    <varray name="rec_basis" >
     <v>       0.09005926       0.00000000       0.00000000 </v>
     <v>       0.00000000       0.08928412       0.00000000 </v>
     <v>       0.00000000       0.00000000       0.03083127 </v>
    </varray>
   </crystal>
   <varray name="positions" >
    <v>       0.45925481       0.63203054       0.53846890 </v>
    <v>       0.49941519       0.63264946       0.49318110 </v>
   </varray>
  </structure>
  <varray name="forces" >
   <v>       1.15307932       0.01792214      -3.79813854 </v>
   <v>      -1.15307932      -0.01792214       3.79813854 </v>
  </varray>
  <varray name="stress" >
   <v>      -0.21241060      -0.00317404       0.67281781 </v>
   <v>      -0.00317404      -0.00826427       0.01045901 </v>
   <v>       0.67281781       0.01045901      -2.22450251 </v>
  </varray>
  <energy>
   <i name="e_fr_energy">     -3.72606171 </i>
   <i name="e_wo_entrp">     -3.72606171 </i>
   <i name="e_0_energy">     -3.72606171 </i>
  </energy>
  <time name="totalsc">   39.10   33.21</time>
 </calculation>
 <calculation>
  <scstep>
   <time name="dav">    0.05    0.02</time>
   <time name="total">    2.02    1.70</time>
   <energy>
    <i name="alphaZ">      0.00241580 </i>
    <i name="ewald">     11.39181928 </i>
    <i name="hartreedc">    -27.01319485 </i>
    <i name="XCdc">      4.46996351 </i>
    <i name="pawpsdc">      5.33517360 </i>
    <i name="pawaedc">     -5.35259036 </i>
    <i name="eentropy">     -0.00000000 </i>
    <i name="bandstr">    -19.57271773 </i>
    <i name="atom">     24.97394176 </i>
    <i name="e_fr_energy">     -5.76518898 </i>
    <i name="e_wo_entrp">     -5.76518898 </i>
    <i name="e_0_energy">     -5.76518898 </i>
   </energy>
  </scstep>
  <scstep>
   <time name="diag">    0.04    0.01</time>
   <time name="diis">    0.01    0.01</time>
   <time name="orth">    0.00    0.00</time>
   <time name="total">    2.05    1.71</time>
   <energy>
    <i name="e_fr_energy">     -5.85972473 </i>
    <i name="e_wo_entrp">     -5.85972473 </i>
    <i name="e_0_energy">     -5.85972473 </i>
   </energy>
  </scstep>
  <scstep>
   <time name="diag">    0.03    0.01</time>
   <time name="diis">    0.01    0.01</time>
   <time name="orth">    0.00    0.00</time>
   <time name="total">    2.13    1.70</time>
   <energy>
    <i name="e_fr_energy">     -5.85747124 </i>
    <i name="e_wo_entrp">     -5.85747123 </i>
    <i name="e_0_energy">     -5.85747123 </i>
   </energy>
  </scstep>
  <scstep>
   <time name="diag">    0.03    0.01</time>
   <time name="diis">    0.01    0.01</time>
   <time name="orth">    0.00    0.00</time>
   <time name="total">    2.03    1.69</time>
   <energy>
    <i name="e_fr_energy">     -5.85058320 </i>
    <i name="e_wo_entrp">     -5.85058320 </i>
    <i name="e_0_energy">     -5.85058320 </i>
   </energy>
  </scstep>
  <scstep>
   <time name="diag">    0.03    0.01</time>
   <time name="diis">    0.01    0.01</time>
   <time name="orth">    0.00    0.00</time>
   <time name="total">    2.09    1.70</time>
   <energy>
    <i name="e_fr_energy">     -5.85094887 </i>
    <i name="e_wo_entrp">     -5.85094887 </i>
    <i name="e_0_energy">     -5.85094887 </i>
   </energy>
  </scstep>
  <scstep>
   <time name="diag">    0.02    0.01</time>
   <time name="diis">    0.01    0.01</time>
   <time name="orth">    0.00    0.00</time>
   <time name="total">    2.40    1.83</time>
   <energy>
    <i name="e_fr_energy">     -5.85139936 </i>
    <i name="e_wo_entrp">     -5.85139936 </i>
    <i name="e_0_energy">     -5.85139936 </i>
   </energy>
  </scstep>
  <scstep>
   <time name="diag">    0.03    0.01</time>
   <time name="diis">    0.01    0.01</time>
   <time name="orth">    0.00    0.00</time>
   <time name="total">    2.11    1.73</time>
   <energy>
    <i name="e_fr_energy">     -5.85151381 </i>
    <i name="e_wo_entrp">     -5.85151381 </i>
    <i name="e_0_energy">     -5.85151381 </i>
   </energy>
  </scstep>
  <scstep>
   <time name="diag">    0.02    0.01</time>
   <time name="diis">    0.01    0.01</time>
   <time name="orth">    0.00    0.00</time>
   <time name="total">    2.12    1.72</time>
   <energy>
    <i name="e_fr_energy">     -5.85177661 </i>
    <i name="e_wo_entrp">     -5.85177661 </i>
    <i name="e_0_energy">     -5.85177661 </i>
   </energy>
  </scstep>
  <scstep>
   <time name="diag">    0.03    0.01</time>
   <time name="diis">    0.01    0.01</time>
   <time name="orth">    0.00    0.00</time>
   <time name="total">    2.16    1.75</time>
   <energy>
    <i name="e_fr_energy">     -5.85188209 </i>
    <i name="e_wo_entrp">     -5.85188209 </i>
    <i name="e_0_energy">     -5.85188209 </i>
   </energy>
  </scstep>
  <scstep>
   <time name="diag">    0.04    0.01</time>
   <time name="diis">    0.01    0.01</time>
   <time name="orth">    0.00    0.00</time>
   <time name="total">    2.10    1.71</time>
   <energy>
    <i name="e_fr_energy">     -5.85198831 </i>
    <i name="e_wo_entrp">     -5.85198831 </i>
    <i name="e_0_energy">     -5.85198831 </i>
   </energy>
  </scstep>
  <scstep>
   <time name="diag">    0.03    0.01</time>
   <time name="diis">    0.01    0.01</time>
   <time name="orth">    0.00    0.00</time>
   <time name="total">    1.00    0.83</time>
   <energy>
    <i name="alphaZ">      0.00241580 </i>
    <i name="ewald">     11.39181928 </i>
    <i name="hartreedc">    -28.61857350 </i>
    <i name="XCdc">      4.69689400 </i>
    <i name="pawpsdc">     10.88122583 </i>
    <i name="pawaedc">    -10.90776726 </i>
    <i name="eentropy">     -0.00000000 </i>
    <i name="bandstr">    -18.27197863 </i>
    <i name="atom">     24.97394176 </i>
    <i name="e_fr_energy">     -5.85202272 </i>
    <i name="e_wo_entrp">     -5.85202272 </i>
    <i name="e_0_energy">     -5.85202272 </i>
   </energy>
  </scstep>
  <structure>
   <crystal>
    <varray name="basis" >
     <v>      11.10380000       0.00000000       0.00000000 </v>
     <v>       0.00000000      11.20020000       0.00000000 </v>
[...]
        <r>    -3.7645     0.0000     0.0000     0.0000     0.0000     0.0000     0.0000     0.0000     0.0000     0.0000 </r>
        <r>    -3.7235     0.0000     0.0000     0.0000     0.0000     0.0000     0.0000     0.0000     0.0000     0.0000 </r>
        <r>    -3.6826     0.0000     0.0000     0.0000     0.0000     0.0000     0.0000     0.0000     0.0000     0.0000 </r>
        <r>    -3.6417     0.0000     0.0000     0.0000     0.0000     0.0000     0.0000     0.0000     0.0000     0.0000 </r>
        <r>    -3.6008     0.0000     0.0000     0.0000     0.0000     0.0000     0.0000     0.0000     0.0000     0.0000 </r>
        <r>    -3.5598     0.0000     0.0000     0.0000     0.0000     0.0000     0.0000     0.0000     0.0000     0.0000 </r>
        <r>    -3.5189     0.0000     0.0000     0.0000     0.0000     0.0000     0.0000     0.0000     0.0000     0.0000 </r>
        <r>    -3.4780     0.0000     0.0000     0.0000     0.0000     0.0000     0.0000     0.0000     0.0000     0.0000 </r>
        <r>    -3.4371     0.0000     0.0000     0.0000     0.0000     0.0000     0.0000     0.0000     0.0000     0.0000 </r>
        <r>    -3.3961     0.0000     0.0000     0.0000     0.0000     0.0000     0.0000     0.0000     0.0000     0.0000 </r>
        <r>    -3.3552     0.0000     0.0000     0.0000     0.0000     0.0000     0.0000     0.0000     0.0000     0.0000 </r>
        <r>    -3.3143     0.0000     0.0000     0.0000     0.0000     0.0000     0.0000     0.0000     0.0000     0.0000 </r>
        <r>    -3.2734     0.0000     0.0000     0.0000     0.0000     0.0000     0.0000     0.0000     0.0000     0.0000 </r>
        <r>    -3.2324     0.0000     0.0000     0.0000     0.0000     0.0000     0.0000     0.0000     0.0000     0.0000 </r>
        <r>    -3.1915     0.0000     0.0000     0.0000     0.0000     0.0000     0.0000     0.0000     0.0000     0.0000 </r>
        <r>    -3.1506     0.0000     0.0000     0.0000     0.0000     0.0000     0.0000     0.0000     0.0000     0.0000 </r>
        <r>    -3.1097     0.0000     0.0000     0.0000     0.0000     0.0000     0.0000     0.0000     0.0000     0.0000 </r>
        <r>    -3.0687     0.0000     0.0000     0.0000     0.0000     0.0000     0.0000     0.0000     0.0000     0.0000 </r>
        <r>    -3.0278     0.0000     0.0000     0.0000     0.0000     0.0000     0.0000     0.0000     0.0000     0.0000 </r>
        <r>    -2.9869     0.0000     0.0000     0.0000     0.0000     0.0000     0.0000     0.0000     0.0000     0.0000 </r>
        <r>    -2.9460     0.0000     0.0000     0.0000     0.0000     0.0000     0.0000     0.0000     0.0000     0.0000 </r>
        <r>    -2.9050     0.0000     0.0000     0.0000     0.0000     0.0000     0.0000     0.0000     0.0000     0.0000 </r>
        <r>    -2.8641     0.0000     0.0000     0.0000     0.0000     0.0000     0.0000     0.0000     0.0000     0.0000 </r>
        <r>    -2.8232     0.0000     0.0000     0.0000     0.0000     0.0000     0.0000     0.0000     0.0000     0.0000 </r>
        <r>    -2.7822     0.0000     0.0000     0.0000     0.0000     0.0000     0.0000     0.0000     0.0000     0.0000 </r>
        <r>    -2.7413     0.0000     0.0000     0.0000     0.0000     0.0000     0.0000     0.0000     0.0000     0.0000 </r>
        <r>    -2.7004     0.0000     0.0000     0.0000     0.0000     0.0000     0.0000     0.0000     0.0000     0.0000 </r>
        <r>    -2.6595     0.0000     0.0000     0.0000     0.0000     0.0000     0.0000     0.0000     0.0000     0.0000 </r>
        <r>    -2.6185     0.0000     0.0000     0.0000     0.0000     0.0000     0.0000     0.0000     0.0000     0.0000 </r>
        <r>    -2.5776     0.0000     0.0000     0.0000     0.0000     0.0000     0.0000     0.0000     0.0000     0.0000 </r>
        <r>    -2.5367     0.0000     0.0000     0.0000     0.0000     0.0000     0.0000     0.0000     0.0000     0.0000 </r>
        <r>    -2.4958     0.0000     0.0000     0.0000     0.0000     0.0000     0.0000     0.0000     0.0000     0.0000 </r>
        <r>    -2.4548     0.0000     0.0000     0.0000     0.0000     0.0000     0.0000     0.0000     0.0000     0.0000 </r>
        <r>    -2.4139     0.0000     0.0000     0.0000     0.0000     0.0000     0.0000     0.0000     0.0000     0.0000 </r>
        <r>    -2.3730     0.0000     0.0000     0.0000     0.0000     0.0000     0.0000     0.0000     0.0000     0.0000 </r>
        <r>    -2.3321     0.0000     0.0000     0.0000     0.0000     0.0000     0.0000     0.0000     0.0000     0.0000 </r>
        <r>    -2.2911     0.0000     0.0000     0.0000     0.0000     0.0000     0.0000     0.0000     0.0000     0.0000 </r>
        <r>    -2.2502     0.0000     0.0000     0.0000     0.0000     0.0000     0.0000     0.0000     0.0000     0.0000 </r>
        <r>    -2.2093     0.0000     0.0000     0.0000     0.0000     0.0000     0.0000     0.0000     0.0000     0.0000 </r>
        <r>    -2.1684     0.0000     0.0000     0.0000     0.0000     0.0000     0.0000     0.0000     0.0000     0.0000 </r>
        <r>    -2.1274     0.0000     0.0000     0.0000     0.0000     0.0000     0.0000     0.0000     0.0000     0.0000 </r>
        <r>    -2.0865     0.0000     0.0000     0.0000     0.0000     0.0000     0.0000     0.0000     0.0000     0.0000 </r>
        <r>    -2.0456     0.0000     0.0000     0.0000     0.0000     0.0000     0.0000     0.0000     0.0000     0.0000 </r>
        <r>    -2.0047     0.0000     0.0000     0.0000     0.0000     0.0000     0.0000     0.0000     0.0000     0.0000 </r>
        <r>    -1.9637     0.0000     0.0000     0.0000     0.0000     0.0000     0.0000     0.0000     0.0000     0.0000 </r>
        <r>    -1.9228     0.0000     0.0000     0.0000     0.0000     0.0000     0.0000     0.0000     0.0000     0.0000 </r>
        <r>    -1.8819     0.0000     0.0000     0.0000     0.0000     0.0000     0.0000     0.0000     0.0000     0.0000 </r>
        <r>    -1.8410     0.0000     0.0000     0.0000     0.0000     0.0000     0.0000     0.0000     0.0000     0.0000 </r>
        <r>    -1.8000     0.0000     0.0000     0.0000     0.0000     0.0000     0.0000     0.0000     0.0000     0.0000 </r>
        <r>    -1.7591     0.0000     0.0000     0.0000     0.0000     0.0000     0.0000     0.0000     0.0000     0.0000 </r>
        <r>    -1.7182     0.0000     0.0000     0.0000     0.0000     0.0000     0.0000     0.0000     0.0000     0.0000 </r>
        <r>    -1.6773     0.0000     0.0000     0.0000     0.0000     0.0000     0.0000     0.0000     0.0000     0.0000 </r>
        <r>    -1.6363     0.0000     0.0000     0.0000     0.0000     0.0000     0.0000     0.0000     0.0000     0.0000 </r>
        <r>    -1.5954     0.0000     0.0000     0.0000     0.0000     0.0000     0.0000     0.0000     0.0000     0.0000 </r>
        <r>    -1.5545     0.0000     0.0000     0.0000     0.0000     0.0000     0.0000     0.0000     0.0000     0.0000 </r>
        <r>    -1.5136     0.0000     0.0000     0.0000     0.0000     0.0000     0.0000     0.0000     0.0000     0.0000 </r>
        <r>    -1.4726     0.0000     0.0000     0.0000     0.0000     0.0000     0.0000     0.0000     0.0000     0.0000 </r>
        <r>    -1.4317     0.0000     0.0000     0.0000     0.0000     0.0000     0.0000     0.0000     0.0000     0.0000 </r>
        <r>    -1.3908     0.0000     0.0000     0.0000     0.0000     0.0000     0.0000     0.0000     0.0000     0.0000 </r>
        <r>    -1.3499     0.0000     0.0000     0.0000     0.0000     0.0000     0.0000     0.0000     0.0000     0.0000 </r>
        <r>    -1.3089     0.0000     0.0000     0.0000     0.0000     0.0000     0.0000     0.0000     0.0000     0.0000 </r>
        <r>    -1.2680     0.0000     0.0000     0.0000     0.0000     0.0000     0.0000     0.0000     0.0000     0.0000 </r>
        <r>    -1.2271     0.0000     0.0000     0.0000     0.0000     0.0000     0.0000     0.0000     0.0000     0.0000 </r>
        <r>    -1.1861     0.0000     0.0000     0.0000     0.0000     0.0000     0.0000     0.0000     0.0000     0.0000 </r>
        <r>    -1.1452     0.0000     0.0000     0.0000     0.0000     0.0000     0.0000     0.0000     0.0000     0.0000 </r>
        <r>    -1.1043     0.0000     0.0000     0.0000     0.0000     0.0000     0.0000     0.0000     0.0000     0.0000 </r>
        <r>    -1.0634     0.0000     0.0000     0.0000     0.0000     0.0000     0.0000     0.0000     0.0000     0.0000 </r>
        <r>    -1.0224     0.0000     0.0000     0.0000     0.0000     0.0000     0.0000     0.0000     0.0000     0.0000 </r>
        <r>    -0.9815     0.0000     0.0000     0.0000     0.0000     0.0000     0.0000     0.0000     0.0000     0.0000 </r>
        <r>    -0.9406     0.0000     0.0000     0.0000     0.0000     0.0000     0.0000     0.0000     0.0000     0.0000 </r>
        <r>    -0.8997     0.0000     0.0000     0.0000     0.0000     0.0000     0.0000     0.0000     0.0000     0.0000 </r>
        <r>    -0.8587     0.0000     0.0000     0.0000     0.0000     0.0000     0.0000     0.0000     0.0000     0.0000 </r>
        <r>    -0.8178     0.0000     0.0000     0.0000     0.0000     0.0000     0.0000     0.0000     0.0000     0.0000 </r>
        <r>    -0.7769     0.0000     0.0000     0.0000     0.0000     0.0000     0.0000     0.0000     0.0000     0.0000 </r>
        <r>    -0.7360     0.0000     0.0000     0.0000     0.0000     0.0000     0.0000     0.0000     0.0000     0.0000 </r>
        <r>    -0.6950     0.0000     0.0000     0.0000     0.0000     0.0000     0.0000     0.0000     0.0000     0.0000 </r>
        <r>    -0.6541     0.0000     0.0000     0.0000     0.0000     0.0000     0.0000     0.0000     0.0000     0.0000 </r>
        <r>    -0.6132     0.0000     0.0000     0.0000     0.0000     0.0000     0.0000     0.0000     0.0000     0.0000 </r>
        <r>    -0.5723     0.0000     0.0000     0.0000     0.0000     0.0000     0.0000     0.0000     0.0000     0.0000 </r>
        <r>    -0.5313     0.0000     0.0000     0.0000     0.0000     0.0000     0.0000     0.0000     0.0000     0.0000 </r>
        <r>    -0.4904     0.0000     0.0000     0.0000     0.0000     0.0000     0.0000     0.0000     0.0000     0.0000 </r>
        <r>    -0.4495     0.0001     0.0000     0.0000     0.0000     0.0000     0.0000     0.0000     0.0000     0.0000 </r>
        <r>    -0.4086     0.0001     0.0000     0.0000     0.0000     0.0000     0.0000     0.0000     0.0000     0.0000 </r>
        <r>    -0.3676     0.0004     0.0000     0.0001     0.0000     0.0000     0.0000     0.0000     0.0000     0.0000 </r>
        <r>    -0.3267     0.0008     0.0000     0.0001     0.0000     0.0000     0.0000     0.0000     0.0000     0.0000 </r>
        <r>    -0.2858     0.0018     0.0000     0.0003     0.0000     0.0000     0.0000     0.0000     0.0000     0.0000 </r>
        <r>    -0.2449     0.0041     0.0000     0.0006     0.0000     0.0000     0.0000     0.0000     0.0000     0.0000 </r>
        <r>    -0.2039     0.0086     0.0000     0.0012     0.0001     0.0000     0.0000     0.0000     0.0000     0.0000 </r>
        <r>    -0.1630     0.0172     0.0000     0.0025     0.0002     0.0000     0.0000     0.0000     0.0000     0.0000 </r>
        <r>    -0.1221     0.0304     0.0000     0.0045     0.0004     0.0000     0.0000     0.0000     0.0000     0.0000 </r>
        <r>    -0.0812     0.0449     0.0000     0.0072     0.0006     0.0000     0.0000     0.0000     0.0000     0.0000 </r>
        <r>    -0.0402     0.0565     0.0000     0.0105     0.0008     0.0000     0.0000     0.0000     0.0000     0.0000 </r>
        <r>     0.0007     0.0666     0.0000     0.0143     0.0010     0.0000     0.0000     0.0000     0.0000     0.0000 </r>
        <r>     0.0416     0.0750     0.0000     0.0177     0.0012     0.0000     0.0000     0.0000     0.0000     0.0000 </r>
        <r>     0.0825     0.0732     0.0000     0.0178     0.0012     0.0000     0.0000     0.0000     0.0000     0.0000 </r>
        <r>     0.1235     0.0596     0.0000     0.0145     0.0010     0.0000     0.0000     0.0000     0.0000     0.0000 </r>
        <r>     0.1644     0.0464     0.0000     0.0114     0.0008     0.0000     0.0000     0.0000     0.0000     0.0000 </r>
        <r>     0.2053     0.0457     0.0000     0.0117     0.0010     0.0000     0.0000     0.0000     0.0000     0.0000 </r>
        <r>     0.2463     0.0609     0.0000     0.0162     0.0014     0.0000     0.0000     0.0000     0.0000     0.0000 </r>
        <r>     0.2872     0.0840     0.0000     0.0227     0.0020     0.0000     0.0000     0.0000     0.0000     0.0000 </r>
        <r>     0.3281     0.0941     0.0000     0.0255     0.0023     0.0000     0.0000     0.0000     0.0000     0.0000 </r>
        <r>     0.3690     0.0795     0.0000     0.0214     0.0019     0.0000     0.0000     0.0000     0.0000     0.0000 </r>
        <r>     0.4100     0.0537     0.0000     0.0140     0.0013     0.0000     0.0000     0.0000     0.0000     0.0000 </r>
        <r>     0.4509     0.0346     0.0000     0.0082     0.0009     0.0000     0.0000     0.0000     0.0000     0.0000 </r>
        <r>     0.4918     0.0267     0.0000     0.0053     0.0008     0.0000     0.0000     0.0000     0.0000     0.0000 </r>
        <r>     0.5327     0.0256     0.0001     0.0044     0.0010     0.0000     0.0000     0.0000     0.0000     0.0000 </r>
        <r>     0.5737     0.0272     0.0002     0.0047     0.0017     0.0000     0.0000     0.0000     0.0000     0.0000 </r>
        <r>     0.6146     0.0333     0.0005     0.0062     0.0032     0.0000     0.0000     0.0000     0.0000     0.0000 </r>
        <r>     0.6555     0.0474     0.0011     0.0096     0.0056     0.0000     0.0000     0.0000     0.0000     0.0000 </r>
        <r>     0.6964     0.0652     0.0024     0.0135     0.0083     0.0000     0.0000     0.0000     0.0000     0.0000 </r>
        <r>     0.7374     0.0716     0.0048     0.0150     0.0094     0.0000     0.0000     0.0000     0.0000     0.0000 </r>
        <r>     0.7783     0.0586     0.0087     0.0123     0.0077     0.0000     0.0000     0.0000     0.0000     0.0000 </r>
        <r>     0.8192     0.0370     0.0130     0.0078     0.0049     0.0000     0.0000     0.0000     0.0000     0.0000 </r>
        <r>     0.8601     0.0196     0.0146     0.0041     0.0026     0.0000     0.0000     0.0000     0.0000     0.0000 </r>
        <r>     0.9011     0.0094     0.0119     0.0020     0.0012     0.0000     0.0000     0.0000     0.0000     0.0000 </r>
        <r>     0.9420     0.0043     0.0075     0.0009     0.0006     0.0000     0.0000     0.0000     0.0000     0.0000 </r>
        <r>     0.9829     0.0019     0.0040     0.0004     0.0003     0.0000     0.0000     0.0000     0.0000     0.0000 </r>
        <r>     1.0238     0.0009     0.0019     0.0002     0.0001     0.0000     0.0000     0.0000     0.0000     0.0000 </r>
        <r>     1.0648     0.0004     0.0009     0.0001     0.0001     0.0000     0.0000     0.0000     0.0000     0.0000 </r>
        <r>     1.1057     0.0002     0.0004     0.0000     0.0000     0.0000     0.0000     0.0000     0.0000     0.0000 </r>
        <r>     1.1466     0.0000     0.0002     0.0000     0.0000     0.0000     0.0000     0.0000     0.0000     0.0000 </r>
        <r>     1.1875     0.0000     0.0001     0.0000     0.0000     0.0000     0.0000     0.0000     0.0000     0.0000 </r>
        <r>     1.2285     0.0000     0.0000     0.0000     0.0000     0.0000     0.0000     0.0000     0.0000     0.0000 </r>
        <r>     1.2694     0.0000     0.0000     0.0000     0.0000     0.0000     0.0000     0.0000     0.0000     0.0000 </r>
        <r>     1.3103     0.0000     0.0000     0.0000     0.0000     0.0000     0.0000     0.0000     0.0000     0.0000 </r>
        <r>     1.3512     0.0000     0.0000     0.0000     0.0000     0.0000     0.0000     0.0000     0.0000     0.0000 </r>
        <r>     1.3922     0.0000     0.0000     0.0000     0.0000     0.0000     0.0000     0.0000     0.0000     0.0000 </r>
       </set>
      </set>
     </set>
    </array>
   </partial>
  </dos>
  <projected>
   <eigenvalues>
    <array>
     <dimension dim="1">band</dimension>
     <dimension dim="2">kpoint</dimension>
     <dimension dim="3">spin</dimension>
     <field>eigene</field>
     <field>occ</field>
     <set>
      <set comment="spin 1">
       <set comment="kpoint 1">
        <r>  -10.3274    1.0000 </r>
        <r>   -0.0850    0.0000 </r>
        <r>    0.0422    0.0000 </r>
        <r>    0.0818    0.0000 </r>
        <r>    0.3051    0.0000 </r>
        <r>    0.5219    0.0000 </r>
        <r>    0.7121    0.0000 </r>
        <r>    0.8341    0.0000 </r>
       </set>
      </set>
     </set>
    </array>
   </eigenvalues>
   <array>
    <dimension dim="1">ion</dimension>
    <dimension dim="2">band</dimension>
    <dimension dim="3">kpoint</dimension>
    <dimension dim="4">spin</dimension>
    <field>    s</field>
    <field>   py</field>
    <field>   pz</field>
    <field>   px</field>
    <field>  dxy</field>
    <field>  dyz</field>
    <field>  dz2</field>
    <field>  dxz</field>
    <field>x2-y2</field>
    <set>
     <set comment="spin1">
      <set comment="kpoint 1">
       <set comment="band 1">
        <r>  0.3036  0.0000  0.0129  0.0012  0.0000  0.0000  0.0000  0.0000  0.0000 </r>
        <r>  0.3036  0.0000  0.0129  0.0012  0.0000  0.0000  0.0000  0.0000  0.0000 </r>
       </set>
       <set comment="band 2">
        <r>  0.0033  0.0000  0.0004  0.0000  0.0000  0.0000  0.0000  0.0000  0.0000 </r>
        <r>  0.0033  0.0000  0.0004  0.0000  0.0000  0.0000  0.0000  0.0000  0.0000 </r>
       </set>
       <set comment="band 3">
        <r>  0.0056  0.0000  0.0016  0.0001  0.0000  0.0000  0.0000  0.0000  0.0000 </r>
        <r>  0.0056  0.0000  0.0016  0.0001  0.0000  0.0000  0.0000  0.0000  0.0000 </r>
       </set>
       <set comment="band 4">
        <r>  0.0011  0.0000  0.0001  0.0000  0.0000  0.0000  0.0000  0.0000  0.0000 </r>
        <r>  0.0011  0.0000  0.0001  0.0000  0.0000  0.0000  0.0000  0.0000  0.0000 </r>
       </set>
       <set comment="band 5">
        <r>  0.0093  0.0000  0.0025  0.0002  0.0000  0.0000  0.0000  0.0000  0.0000 </r>
        <r>  0.0093  0.0000  0.0025  0.0002  0.0000  0.0000  0.0000  0.0000  0.0000 </r>
       </set>
       <set comment="band 6">
        <r>  0.0015  0.0000  0.0002  0.0000  0.0000  0.0000  0.0000  0.0000  0.0000 </r>
        <r>  0.0015  0.0000  0.0002  0.0000  0.0000  0.0000  0.0000  0.0000  0.0000 </r>
       </set>
       <set comment="band 7">
        <r>  0.0072  0.0000  0.0015  0.0009  0.0000  0.0000  0.0000  0.0000  0.0000 </r>
        <r>  0.0072  0.0000  0.0015  0.0009  0.0000  0.0000  0.0000  0.0000  0.0000 </r>
       </set>
       <set comment="band 8">
        <r>  0.0000  0.0015  0.0000  0.0000  0.0000  0.0000  0.0000  0.0000  0.0000 </r>
        <r>  0.0000  0.0015  0.0000  0.0000  0.0000  0.0000  0.0000  0.0000  0.0000 </r>
       </set>
      </set>
     </set>
    </set>
   </array>
  </projected>
 </calculation>
 <structure name="finalpos" >
  <crystal>
   <varray name="basis" >
    <v>      11.10380000       0.00000000       0.00000000 </v>
    <v>       0.00000000      11.20020000       0.00000000 </v>
    <v>       0.00000000       0.00000000      32.43460000 </v>
   </varray>
   <i name="volume">   4033.72191804 </i>
   <varray name="rec_basis" >
    <v>       0.09005926       0.00000000       0.00000000 </v>
    <v>       0.00000000       0.08928412       0.00000000 </v>
    <v>       0.00000000       0.00000000       0.03083127 </v>
   </varray>
  </crystal>
  <varray name="positions" >
   <v>       0.46957140       0.63218941       0.52689671 </v>
   <v>       0.48909860       0.63249059       0.50475329 </v>
  </varray>
 </structure>
</modeling>
