LAMMPS data file. msi2lmp v3.9.11 / 6 Sep 2024 / CGCMM for vng_1_opt

   2880 atoms
   3168 bonds
   5568 angles
   8928 dihedrals
   1344 impropers

   4 atom types
   6 bond types
   9 angle types
  13 dihedral types
   3 improper types

    -9.431392707    40.543407293 xlo xhi
    -0.122171327    41.141545406 ylo yhi
     0.380655838    53.996023107 zlo zhi
    -0.152896552   -18.733276249    -1.411355244 xy xz yz

Masses

   1  12.011150 # cp
   2   1.007970 # h
   3  12.011150 # c
   4  12.011150 # c2

Pair Coeffs # lj/cut/coul/long

   1   0.1479999981   3.6170487995 # cp
   2   0.0380000011   2.4499714540 # h
   3   0.1599999990   3.4745050026 # c
   4   0.0389999952   3.8754094636 # c2

Bond Coeffs # harmonic

   1   480.0000     1.3400 # cp-cp
   2   283.0924     1.5100 # cp-c2
   3   363.4164     1.0800 # cp-h
   4   283.0924     1.5100 # cp-c
   5   322.7158     1.5260 # c2-c2
   6   340.6175     1.1050 # h-c2

Angle Coeffs # harmonic

   1    90.0000   120.0000 # cp-cp-cp
   2    44.2000   120.0000 # cp-cp-c2
   3    37.0000   120.0000 # cp-cp-h
   4    44.2000   120.0000 # cp-cp-c
   5    46.6000   110.5000 # cp-c-cp
   6    44.4000   110.0000 # h-c2-c2
   7    46.6000   110.5000 # cp-c2-c2
   8    39.5000   106.4000 # h-c2-h
   9    44.4000   110.0000 # cp-c2-h

Dihedral Coeffs # harmonic

  1     3.0000  -1   2 # cp-cp-cp-cp
  2     3.0000  -1   2 # cp-cp-cp-h
  3     3.0000  -1   2 # cp-cp-cp-c2
  4     3.0000  -1   2 # h-cp-cp-c2
  5     0.0000   1   2 # cp-cp-c2-c2
  6     0.0000   1   2 # cp-cp-c2-h
  7     3.0000  -1   2 # h-cp-cp-h
  8     3.0000  -1   2 # cp-cp-cp-c
  9     3.0000  -1   2 # h-cp-cp-c
 10     0.6750   1   4 # cp-cp-c-cp
 11     0.1581   1   3 # cp-c2-c2-h
 12     0.1581   1   3 # h-c2-c2-h
 13     0.1581   1   3 # cp-c2-c2-cp

Improper Coeffs # cvff

    1     0.3700  -1   2 # cp-cp-cp-c2
    2     0.3700  -1   2 # cp-cp-cp-h
    3     0.3700  -1   2 # cp-cp-cp-c

Atoms # full

      1      1   1  0.000000     8.074520000    31.641400000    18.621000000   0   0   0 # cp
      2      1   1 -0.100000     6.887980000    31.807400000    17.947600000   0   0   0 # cp
      3      1   1 -0.100000     6.263060000    30.693800000    17.430000000   0   0   0 # cp
      4      1   1  0.000000     6.815530000    29.430700000    17.535900000   0   0   0 # cp
      5      1   1 -0.100000     7.932140000    29.274400000    18.339700000   0   0   0 # cp
      6      1   1 -0.100000     8.590880000    30.374700000    18.810500000   0   0   0 # cp
      7      1   2  0.100000     6.392710000    32.756100000    17.867100000   0   0   0 # h
      8      1   2  0.100000     5.337100000    30.795700000    16.939300000   0   0   0 # h
      9      1   2  0.100000     8.322930000    28.318400000    18.592300000   0   0   0 # h
     10      1   2  0.100000     9.532100000    30.286300000    19.343400000   0   0   0 # h
     11      1   1 -0.100000     8.207160000    26.968600000    16.220500000   0   0   0 # cp
     12      1   1  0.000000     6.897390000    26.885100000    16.678600000   0   0   0 # cp
     13      1   1 -0.100000     6.348880000    25.627300000    16.822300000   0   0   0 # cp
     14      1   1 -0.100000     7.036820000    24.509000000    16.435300000   0   0   0 # cp
     15      1   1  0.000000     8.261230000    24.609300000    15.871000000   0   0   0 # cp
     16      1   1 -0.100000     8.884530000    25.838700000    15.861700000   0   0   0 # cp
     17      1   3  0.000000     6.034000000    28.178800000    16.940100000   0   0   0 # c
     18      1   1  0.000000     5.481310000    28.369500000    15.435200000   0   0   0 # cp
     19      1   1 -0.100000     4.475070000    27.550100000    14.957500000   0   0   0 # cp
     20      1   1 -0.100000     4.027470000    27.635900000    13.661400000   0   0   0 # cp
     21      1   1  0.000000     4.535890000    28.593900000    12.838700000   0   0   0 # cp
     22      1   1 -0.100000     5.594770000    29.365100000    13.268000000   0   0   0 # cp
     23      1   1 -0.100000     6.092290000    29.193700000    14.529500000   0   0   0 # cp
     24      1   1 -0.100000     5.308460000    27.523400000    19.340800000   0   0   0 # cp
     25      1   1 -0.100000     4.412180000    27.517500000    20.371700000   0   0   0 # cp
     26      1   1  0.000000     3.089810000    27.876100000    20.180400000   0   0   0 # cp
     27      1   1 -0.100000     2.737120000    28.322400000    18.922000000   0   0   0 # cp
     28      1   1 -0.100000     3.651080000    28.398000000    17.924400000   0   0   0 # cp
     29      1   1  0.000000     4.965580000    27.992300000    18.087200000   0   0   0 # cp
     30      1   3  0.000000     1.928550000    27.742000000    21.310300000   0   0   0 # c
     31      1   1  0.000000     1.454710000    23.473000000    20.633800000   0   0   0 # cp
     32      1   1 -0.100000     2.314100000    23.927200000    21.601400000   0   0   0 # cp
     33      1   1 -0.100000     2.443250000    25.268600000    21.787600000   0   0   0 # cp
     34      1   1  0.000000     1.678330000    26.213900000    21.081200000   0   0   0 # cp
     35      1   1 -0.100000     0.867386000    25.697000000    20.061000000   0   0   0 # cp
     36      1   1 -0.100000     0.715429000    24.353400000    19.888200000   0   0   0 # cp
     37      1   1  0.000000     0.671753000    28.688000000    21.055600000   0   0   0 # cp
     38      1   1 -0.100000     0.898498000    30.037000000    20.773400000   0   0   0 # cp
     39      1   1 -0.100000    -0.110082000    30.879400000    20.444200000   0   0   0 # cp
     40      1   1  0.000000    -1.392780000    30.402500000    20.397600000   0   0   0 # cp
     41      1   1 -0.100000    -1.661400000    29.119000000    20.788800000   0   0   0 # cp
     42      1   1 -0.100000    -0.649392000    28.275800000    21.156600000   0   0   0 # cp
     43      1   1 -0.100000     1.373110000    27.690500000    23.815100000   0   0   0 # cp
     44      1   1 -0.100000     1.564760000    28.027600000    25.154200000   0   0   0 # cp
     45      1   1  0.000000     2.632460000    28.804900000    25.527700000   0   0   0 # cp
     46      1   1 -0.100000     3.488380000    29.293600000    24.559600000   0   0   0 # cp
     47      1   1 -0.100000     3.259200000    28.987000000    23.230500000   0   0   0 # cp
     48      1   1  0.000000     2.245510000    28.137000000    22.837400000   0   0   0 # cp
     49      1   2  0.100000     8.683640000    27.921300000    16.019800000   0   0   0 # h
     50      1   2  0.100000     5.336370000    25.485300000    17.173900000   0   0   0 # h
     51      1   2  0.100000     6.539970000    23.566800000    16.470600000   0   0   0 # h
     52      1   2  0.100000     9.889370000    25.996500000    15.456600000   0   0   0 # h
     53      1   2  0.100000     4.020370000    26.788700000    15.582900000   0   0   0 # h
     54      1   2  0.100000     3.275720000    26.959400000    13.353800000   0   0   0 # h
     55      1   2  0.100000     6.114050000    30.038500000    12.598700000   0   0   0 # h
     56      1   2  0.100000     6.982000000    29.753000000    14.789900000   0   0   0 # h
     57      1   2  0.100000     6.295210000    27.131500000    19.524200000   0   0   0 # h
     58      1   2  0.100000     4.694970000    27.090900000    21.314000000   0   0   0 # h
     59      1   2  0.100000     1.719360000    28.619400000    18.650900000   0   0   0 # h
     60      1   2  0.100000     3.311540000    28.795400000    16.979600000   0   0   0 # h
     61      1   2  0.100000     2.823960000    23.219600000    22.267000000   0   0   0 # h
     62      1   2  0.100000     3.098320000    25.582400000    22.605200000   0   0   0 # h
     63      1   2  0.100000     0.370087000    26.398500000    19.385100000   0   0   0 # h
     64      1   2  0.100000     0.026325500    23.956100000    19.152700000   0   0   0 # h
     65      1   2  0.100000     1.913440000    30.408900000    20.720500000   0   0   0 # h
     66      1   2  0.100000     0.070118100    31.896100000    20.099100000   0   0   0 # h
     67      1   2  0.100000    -2.667340000    28.769400000    20.769400000   0   0   0 # h
     68      1   2  0.100000    -0.894076000    27.282700000    21.433200000   0   0   0 # h
     69      1   2  0.100000     0.510686000    27.104500000    23.532400000   0   0   0 # h
     70      1   2  0.100000     0.891050000    27.625600000    25.909000000   0   0   0 # h
     71      1   2  0.100000     4.285310000    29.927400000    24.821100000   0   0   0 # h
     72      1   2  0.100000     3.883220000    29.401600000    22.483600000   0   0   0 # h
     73      1   1  0.000000     7.603570000    30.596400000     9.108880000   0   0   0 # cp
     74      1   1 -0.100000     8.692860000    31.202600000     9.639200000   0   0   0 # cp
     75      1   1 -0.100000     9.680060000    30.482000000    10.222000000   0   0   0 # cp
     76      1   1  0.000000     9.616240000    29.082000000    10.269900000   0   0   0 # cp
     77      1   1 -0.100000     8.535740000    28.468400000     9.650640000   0   0   0 # cp
     78      1   1 -0.100000     7.528670000    29.228600000     9.084370000   0   0   0 # cp
     79      1   2  0.100000     8.770030000    32.306500000     9.680400000   0   0   0 # h
     80      1   2  0.100000    10.449600000    31.037900000    10.736700000   0   0   0 # h
     81      1   2  0.100000     8.513160000    27.373500000     9.555710000   0   0   0 # h
     82      1   2  0.100000     6.682090000    28.755500000     8.612730000   0   0   0 # h
     83      1   1 -0.100000     9.201920000    26.481400000    12.043800000   0   0   0 # cp
     84      1   1  0.000000    10.471800000    26.847500000    11.601500000   0   0   0 # cp
     85      1   1 -0.100000    11.515500000    25.995800000    11.889500000   0   0   0 # cp
     86      1   1 -0.100000    11.344600000    24.885400000    12.636400000   0   0   0 # cp
     87      1   1  0.000000    10.107400000    24.531600000    13.091700000   0   0   0 # cp
     88      1   1 -0.100000     9.026700000    25.305300000    12.720100000   0   0   0 # cp
     89      1   3  0.000000    10.769500000    28.303200000    11.047600000   0   0   0 # c
     90      1   1  0.000000    11.070000000    29.008100000    12.430200000   0   0   0 # cp
     91      1   1 -0.100000    12.343700000    29.128600000    12.925000000   0   0   0 # cp
     92      1   1 -0.100000    12.627400000    29.852000000    14.060800000   0   0   0 # cp
     93      1   1  0.000000    11.609000000    30.384400000    14.792200000   0   0   0 # cp
     94      1   1 -0.100000    10.306400000    30.113000000    14.399200000   0   0   0 # cp
     95      1   1 -0.100000    10.040200000    29.435600000    13.265100000   0   0   0 # cp
     96      1   1 -0.100000    11.748500000    27.354500000     8.855300000   0   0   0 # cp
     97      1   1 -0.100000    12.625400000    27.345200000     7.780660000   0   0   0 # cp
     98      1   1  0.000000    13.681700000    28.225300000     7.702240000   0   0   0 # cp
     99      1   1 -0.100000    13.784000000    29.174500000     8.728010000   0   0   0 # cp
    100      1   1 -0.100000    12.863200000    29.221300000     9.752400000   0   0   0 # cp
    101      1   1  0.000000    11.864200000    28.277500000     9.889190000   0   0   0 # cp
    102      1   3  0.000000    14.647800000    28.112100000     6.445810000   0   0   0 # c
    103      1   1  0.000000    15.970000000    23.953200000     7.128350000   0   0   0 # cp
    104      1   1 -0.100000    15.102400000    24.244900000     6.122470000   0   0   0 # cp
    105      1   1 -0.100000    14.726300000    25.542400000     5.889600000   0   0   0 # cp
    106      1   1  0.000000    15.209600000    26.618400000     6.651160000   0   0   0 # cp
    107      1   1 -0.100000    16.054700000    26.262700000     7.726520000   0   0   0 # cp
    108      1   1 -0.100000    16.472400000    24.969700000     7.928760000   0   0   0 # cp
    109      1   1  0.000000    15.772800000    29.258800000     6.394810000   0   0   0 # cp
    110      1   1 -0.100000    15.388600000    30.614700000     6.362490000   0   0   0 # cp
    111      1   1 -0.100000    16.310100000    31.629600000     6.443590000   0   0   0 # cp
    112      1   1  0.000000    17.638200000    31.328600000     6.531170000   0   0   0 # cp
    113      1   1 -0.100000    18.035000000    30.031700000     6.411210000   0   0   0 # cp
    114      1   1 -0.100000    17.133300000    28.997600000     6.345050000   0   0   0 # cp
    115      1   1 -0.100000    14.580800000    27.986700000     3.855870000   0   0   0 # cp
    116      1   1 -0.100000    13.992900000    28.114600000     2.632540000   0   0   0 # cp
    117      1   1  0.000000    12.731900000    28.670700000     2.566410000   0   0   0 # cp
    118      1   1 -0.100000    12.095000000    29.138200000     3.691060000   0   0   0 # cp
    119      1   1 -0.100000    12.710000000    28.976100000     4.907650000   0   0   0 # cp
    120      1   1  0.000000    13.947900000    28.382600000     5.021270000   0   0   0 # cp
    121      1   2  0.100000     8.339590000    27.136800000    11.965900000   0   0   0 # h
    122      1   2  0.100000    12.496500000    26.277900000    11.665500000   0   0   0 # h
    123      1   2  0.100000    12.241500000    24.321200000    12.962200000   0   0   0 # h
    124      1   2  0.100000     8.053690000    25.080600000    13.115900000   0   0   0 # h
    125      1   2  0.100000    13.163700000    28.680700000    12.396800000   0   0   0 # h
    126      1   2  0.100000    13.660400000    29.972200000    14.344600000   0   0   0 # h
    127      1   2  0.100000     9.466920000    30.440500000    15.026500000   0   0   0 # h
    128      1   2  0.100000     9.015570000    29.235800000    13.008800000   0   0   0 # h
    129      1   2  0.100000    10.962000000    26.656700000     8.837320000   0   0   0 # h
    130      1   2  0.100000    12.437900000    26.617400000     6.978140000   0   0   0 # h
    131      1   2  0.100000    14.579400000    29.909800000     8.748210000   0   0   0 # h
    132      1   2  0.100000    12.956300000    30.042300000    10.467000000   0   0   0 # h
    133      1   2  0.100000    14.648900000    23.461100000     5.553430000   0   0   0 # h
    134      1   2  0.100000    13.974300000    25.752100000     5.113340000   0   0   0 # h
    135      1   2  0.100000    16.428500000    27.024100000     8.418210000   0   0   0 # h
    136      1   2  0.100000    17.131900000    24.692400000     8.734130000   0   0   0 # h
    137      1   2  0.100000    14.333100000    30.869800000     6.319890000   0   0   0 # h
    138      1   2  0.100000    15.976300000    32.644600000     6.629700000   0   0   0 # h
    139      1   2  0.100000    19.087738021    29.839300000     6.445100000   0   0   0 # h
    140      1   2  0.100000    17.504800000    27.994200000     6.237620000   0   0   0 # h
    141      1   2  0.100000    15.557700000    27.529800000     3.899340000   0   0   0 # h
    142      1   2  0.100000    14.467100000    27.715200000     1.774030000   0   0   0 # h
    143      1   2  0.100000    11.103500000    29.573400000     3.577610000   0   0   0 # h
    144      1   2  0.100000    12.164600000    29.303500000     5.805410000   0   0   0 # h
    145      1   1  0.000000    12.054796546    -0.207314943    21.598500000   0   0   0 # cp
    146      1   1 -0.100000    13.149184566    -0.574014943    22.363000000   0   0   0 # cp
    147      1   1 -0.100000    13.301488021    39.367900000    22.506900000   0   0   0 # cp
    148      1   1  0.000000    12.513000000    38.384700000    21.984300000   0   0   0 # cp
    149      1   1 -0.100000    11.506200000    38.759800000    21.120100000   0   0   0 # cp
    150      1   1 -0.100000    11.168600000    40.071400000    20.930500000   0   0   0 # cp
    151      1   2  0.100000    13.703988021     0.194992000    22.872300000   0   0   0 # h
    152      1   2  0.100000    14.164488021    39.082000000    23.096000000   0   0   0 # h
    153      1   2  0.100000    10.929800000    38.024700000    20.580100000   0   0   0 # h
    154      1   2  0.100000    10.279300000    40.359000000    20.341400000   0   0   0 # h
    155      1   1 -0.100000    10.424300000    35.919800000    22.210600000   0   0   0 # cp
    156      1   1  0.000000    11.764200000    35.733000000    21.946100000   0   0   0 # cp
    157      1   1 -0.100000    12.121500000    34.488000000    21.432800000   0   0   0 # cp
    158      1   1 -0.100000    11.210900000    33.525100000    21.121500000   0   0   0 # cp
    159      1   1  0.000000     9.870270000    33.842100000    21.222000000   0   0   0 # cp
    160      1   1 -0.100000     9.470110000    35.014600000    21.817700000   0   0   0 # cp
    161      1   3  0.000000    12.895188021    36.827700000    22.281000000   0   0   0 # c
    162      1   1  0.000000    13.159988021    36.495900000    23.819300000   0   0   0 # cp
    163      1   1 -0.100000    13.846488021    35.315400000    24.108600000   0   0   0 # cp
    164      1   1 -0.100000    14.309188021    35.044300000    25.364500000   0   0   0 # cp
    165      1   1  0.000000    14.047488021    35.923300000    26.388900000   0   0   0 # cp
    166      1   1 -0.100000    13.223088021    37.027400000    26.139100000   0   0   0 # cp
    167      1   1 -0.100000    12.829888021    37.309500000    24.888100000   0   0   0 # cp
    168      1   1 -0.100000    13.901188021    36.613100000    19.944100000   0   0   0 # cp
    169      1   1 -0.100000    14.876688021    36.140900000    19.097800000   0   0   0 # cp
    170      1   1  0.000000    16.099568021    35.680500000    19.618700000   0   0   0 # cp
    171      1   1 -0.100000    16.370828021    36.005300000    20.929500000   0   0   0 # cp
    172      1   1 -0.100000    15.409128021    36.579200000    21.758000000   0   0   0 # cp
    173      1   1  0.000000    14.101788021    36.687400000    21.296300000   0   0   0 # cp
    174      1   3  0.000000    16.996638021    34.687600000    18.712700000   0   0   0 # c
    175      1   1  0.000000    13.952200000    31.718600000    17.448600000   0   0   0 # cp
    176      1   1 -0.100000    14.603900000    32.457600000    16.483500000   0   0   0 # cp
    177      1   1 -0.100000    15.520488021    33.434700000    16.855100000   0   0   0 # cp
    178      1   1  0.000000    15.885518021    33.615600000    18.190500000   0   0   0 # cp
    179      1   1 -0.100000    15.160608021    32.904500000    19.136600000   0   0   0 # cp
    180      1   1 -0.100000    14.226088021    31.967000000    18.784800000   0   0   0 # cp
    181      1   1  0.000000    -6.794150000    34.011500000    19.529700000   0   0   0 # cp
    182      1   1 -0.100000    -5.702930000    34.744400000    20.009600000   0   0   0 # cp
    183      1   1 -0.100000    -4.577940000    34.142900000    20.542600000   0   0   0 # cp
    184      1   1  0.000000    -4.510960000    32.775600000    20.572000000   0   0   0 # cp
    185      1   1 -0.100000    -5.580880000    32.030800000    20.168400000   0   0   0 # cp
    186      1   1 -0.100000    -6.676000000    32.634700000    19.629500000   0   0   0 # cp
    187      1   1 -0.100000    18.375868021    34.686000000    16.502900000   0   0   0 # cp
    188      1   1 -0.100000    19.122058021    35.284300000    15.540000000   0   0   0 # cp
    189      1   1  0.000000    19.388118021    36.619300000    15.570200000   0   0   0 # cp
    190      1   1 -0.100000    18.781688021    37.396500000    16.539200000   0   0   0 # cp
    191      1   1 -0.100000    17.964738021    36.830900000    17.503300000   0   0   0 # cp
    192      1   1  0.000000    17.731558021    35.449800000    17.508000000   0   0   0 # cp
    193      1   2  0.100000    10.095300000    36.844100000    22.619100000   0   0   0 # h
    194      1   2  0.100000    13.158688021    34.230700000    21.262400000   0   0   0 # h
    195      1   2  0.100000    11.542900000    32.583100000    20.709900000   0   0   0 # h
    196      1   2  0.100000     8.430730000    35.219200000    21.932600000   0   0   0 # h
    197      1   2  0.100000    14.076888021    34.637400000    23.306900000   0   0   0 # h
    198      1   2  0.100000    14.914388021    34.158900000    25.530500000   0   0   0 # h
    199      1   2  0.100000     3.583850297    36.997622408    53.776182485   0   0  -1 # h
    200      1   2  0.100000    12.265988021    38.253800000    24.746300000   0   0   0 # h
    201      1   2  0.100000    12.914300000    36.844400000    19.527800000   0   0   0 # h
    202      1   2  0.100000    14.621088021    36.087800000    18.086900000   0   0   0 # h
    203      1   2  0.100000    17.275638021    35.760700000    21.407500000   0   0   0 # h
    204      1   2  0.100000    15.681588021    36.776500000    22.787200000   0   0   0 # h
    205      1   2  0.100000    14.389000000    32.316300000    15.442400000   0   0   0 # h
    206      1   2  0.100000    15.941928021    34.028400000    16.064000000   0   0   0 # h
    207      1   2  0.100000    15.352728021    33.049100000    20.186500000   0   0   0 # h
    208      1   2  0.100000    13.696688021    31.427900000    19.541200000   0   0   0 # h
    209      1   2  0.100000    -5.738590000    35.833900000    19.994900000   0   0   0 # h
    210      1   2  0.100000    -3.810770000    34.729800000    20.960300000   0   0   0 # h
    211      1   2  0.100000    -5.532480000    30.925400000    20.195700000   0   0   0 # h
    212      1   2  0.100000    17.631778021    31.961300000    19.182000000   0   0   0 # h
    213      1   2  0.100000    18.222908021    33.632800000    16.428900000   0   0   0 # h
    214      1   2  0.100000    19.559818021    34.689200000    14.746900000   0   0   0 # h
    215      1   2  0.100000    19.009068021    38.426100000    16.613500000   0   0   0 # h
    216      1   2  0.100000    17.603418021    37.497200000    18.257100000   0   0   0 # h
    217      1   1  0.000000     3.279280000    39.978600000     8.674860000   0   0   0 # cp
    218      1   1 -0.100000     2.133330000    39.718200000     7.907840000   0   0   0 # cp
    219      1   1 -0.100000     2.037720000    38.547500000     7.190590000   0   0   0 # cp
    220      1   1  0.000000     3.039650000    37.598200000     7.238220000   0   0   0 # cp
    221      1   1 -0.100000     4.120150000    37.834200000     8.061900000   0   0   0 # cp
    222      1   1 -0.100000     4.257100000    39.030600000     8.705550000   0   0   0 # cp
    223      1   2  0.100000     1.357170000    40.466200000     7.869980000   0   0   0 # h
    224      1   2  0.100000     1.124240000    38.349400000     6.615040000   0   0   0 # h
    225      1   2  0.100000     4.835370000    37.050900000     8.270390000   0   0   0 # h
    226      1   2  0.100000     5.137560000    39.209300000     9.290160000   0   0   0 # h
    227      1   1 -0.100000     5.288810000    35.432900000     6.323750000   0   0   0 # cp
    228      1   1  0.000000     3.949000000    35.116900000     6.421520000   0   0   0 # cp
    229      1   1 -0.100000     3.619430000    33.764000000     6.513330000   0   0   0 # cp
    230      1   1 -0.100000     4.579930000    32.788800000     6.650300000   0   0   0 # cp
    231      1   1  0.000000     5.890010000    33.176300000     6.755030000   0   0   0 # cp
    232      1   1 -0.100000     6.257100000    34.482000000     6.536120000   0   0   0 # cp
    233      1   3  0.000000     2.752630000    36.190100000     6.525380000   0   0   0 # c
    234      1   1  0.000000     2.167610000    36.319800000     5.029290000   0   0   0 # cp
    235      1   1 -0.100000     1.467270000    35.292900000     4.433760000   0   0   0 # cp
    236      1   1 -0.100000     0.892087000    35.403500000     3.217080000   0   0   0 # cp
    237      1   1  0.000000     1.072770000    36.565800000     2.494600000   0   0   0 # cp
    238      1   1 -0.100000     1.829620000    37.567400000     3.029020000   0   0   0 # cp
    239      1   1 -0.100000     2.398730000    37.458500000     4.270820000   0   0   0 # cp
    240      1   1 -0.100000     2.141030000    35.272800000     8.872710000   0   0   0 # cp
    241      1   1 -0.100000     1.285700000    34.705700000     9.791420000   0   0   0 # cp
    242      1   1  0.000000    -0.031422700    34.381500000     9.469850000   0   0   0 # cp
    243      1   1 -0.100000    -0.477930000    34.754500000     8.203350000   0   0   0 # cp
    244      1   1 -0.100000     0.325254000    35.430400000     7.339280000   0   0   0 # cp
    245      1   1  0.000000     1.690620000    35.605400000     7.593320000   0   0   0 # cp
    246      1   3  0.000000    -0.957827000    33.569600000    10.506100000   0   0   0 # c
    247      1   1  0.000000     1.576310000    30.071800000    11.113700000   0   0   0 # cp
    248      1   1 -0.100000     1.446850000    30.983300000    12.137800000   0   0   0 # cp
    249      1   1 -0.100000     0.657013000    32.081500000    11.965300000   0   0   0 # cp
    250      1   1  0.000000    -0.094549900    32.255100000    10.826900000   0   0   0 # cp
    251      1   1 -0.100000     0.108138000    31.395500000     9.774560000   0   0   0 # cp
    252      1   1 -0.100000     0.898653000    30.263900000     9.941240000   0   0   0 # cp
    253      1   1  0.000000    -2.454700000    33.293600000     9.978160000   0   0   0 # cp
    254      1   1 -0.100000    -3.259560000    34.393200000     9.701030000   0   0   0 # cp
    255      1   1 -0.100000    20.471198021    34.248900000     9.165440000   0   0   0 # cp
    256      1   1  0.000000    19.946278021    33.000400000     8.973540000   0   0   0 # cp
    257      1   1 -0.100000    20.690398021    31.894700000     9.278670000   0   0   0 # cp
    258      1   1 -0.100000    -3.028720000    32.057100000     9.786430000   0   0   0 # cp
    259      1   1 -0.100000    -1.943160000    33.750600000    12.885200000   0   0   0 # cp
    260      1   1 -0.100000    -2.480320000    34.448200000    13.944400000   0   0   0 # cp
    261      1   1  0.000000    -2.361890000    35.813800000    13.978900000   0   0   0 # cp
    262      1   1 -0.100000    -1.656920000    36.463800000    12.996500000   0   0   0 # cp
    263      1   1 -0.100000    -1.116260000    35.771500000    11.943200000   0   0   0 # cp
    264      1   1  0.000000    -1.264640000    34.393700000    11.842300000   0   0   0 # cp
    265      1   2  0.100000     5.625560000    36.415900000     6.169110000   0   0   0 # h
    266      1   2  0.100000     2.571170000    33.421400000     6.523990000   0   0   0 # h
    267      1   2  0.100000     4.270120000    31.771100000     6.786220000   0   0   0 # h
    268      1   2  0.100000     7.328600000    34.770400000     6.555460000   0   0   0 # h
    269      1   2  0.100000     1.287260000    34.355200000     4.950200000   0   0   0 # h
    270      1   2  0.100000     0.284660000    34.622400000     2.833740000   0   0   0 # h
    271      1   2  0.100000     2.038510000    38.424900000     2.421880000   0   0   0 # h
    272      1   2  0.100000     2.954870000    38.273000000     4.634140000   0   0   0 # h
    273      1   2  0.100000     3.159740000    35.429600000     9.170240000   0   0   0 # h
    274      1   2  0.100000     1.705590000    34.433700000    10.746500000   0   0   0 # h
    275      1   2  0.100000    -1.450450000    34.478300000     7.797550000   0   0   0 # h
    276      1   2  0.100000    -0.153248000    35.797600000     6.446650000   0   0   0 # h
    277      1   2  0.100000     2.012870000    30.836300000    13.067700000   0   0   0 # h
    278      1   2  0.100000     0.613548000    32.774700000    12.783500000   0   0   0 # h
    279      1   2  0.100000    -0.372357000    31.588500000     8.838940000   0   0   0 # h
    280      1   2  0.100000     0.896339000    29.568800000     9.127010000   0   0   0 # h
    281      1   2  0.100000    -2.849000000    35.396200000     9.725930000   0   0   0 # h
    282      1   2  0.100000    19.883568021    35.116600000     8.957820000   0   0   0 # h
    283      1   2  0.100000    20.313968021    30.905400000     9.128190000   0   0   0 # h
    284      1   2  0.100000    -2.490850000    31.126000000    10.015500000   0   0   0 # h
    285      1   2  0.100000    -2.069300000    32.676000000    12.875100000   0   0   0 # h
    286      1   2  0.100000    -3.023540000    33.918400000    14.701500000   0   0   0 # h
    287      1   2  0.100000    -1.607420000    37.521200000    13.043200000   0   0   0 # h
    288      1   2  0.100000    -0.803249000    36.357000000    11.094000000   0   0   0 # h
    289      1   1  0.000000     2.319970000    19.728700000    20.412100000   0   0   0 # cp
    290      1   1 -0.100000     3.204580000    19.240700000    21.338600000   0   0   0 # cp
    291      1   1 -0.100000     3.099070000    17.946000000    21.809400000   0   0   0 # cp
    292      1   1  0.000000     2.065590000    17.103100000    21.387300000   0   0   0 # cp
    293      1   1 -0.100000     1.154360000    17.627800000    20.490500000   0   0   0 # cp
    294      1   1 -0.100000     1.301960000    18.912300000    19.989200000   0   0   0 # cp
    295      1   2  0.100000     4.011650000    19.886100000    21.703600000   0   0   0 # h
    296      1   2  0.100000     3.875650000    17.570200000    22.471400000   0   0   0 # h
    297      1   2  0.100000     0.370325000    17.056500000    20.039300000   0   0   0 # h
    298      1   2  0.100000     0.601247000    19.231600000    19.221700000   0   0   0 # h
    299      1   1 -0.100000    -0.350992000    15.214600000    22.020900000   0   0   0 # cp