LAMMPS data file. msi2lmp v3.9.11 / 6 Sep 2024 / CGCMM for whl_0_opt

   5760 atoms
   6336 bonds
  11136 angles
  17856 dihedrals
   2688 impropers

   4 atom types
   6 bond types
   9 angle types
  13 dihedral types
   3 improper types

    -0.656506410    64.626593590 xlo xhi
    -1.591863516    63.282889019 ylo yhi
    -0.187882354    54.931578080 zlo zhi
    -0.515423805     0.187135323    -0.854423090 xy xz yz

Masses

   1  12.011150 # cp
   2   1.007970 # h
   3  12.011150 # c
   4  12.011150 # c2

Pair Coeffs # lj/cut/coul/long

   1   0.1479999981   3.6170487995 # cp
   2   0.0380000011   2.4499714540 # h
   3   0.1599999990   3.4745050026 # c
   4   0.0389999952   3.8754094636 # c2

Bond Coeffs # harmonic

   1   480.0000     1.3400 # cp-cp
   2   283.0924     1.5100 # cp-c2
   3   363.4164     1.0800 # cp-h
   4   283.0924     1.5100 # cp-c
   5   340.6175     1.1050 # h-c2
   6   322.7158     1.5260 # c2-c2

Angle Coeffs # harmonic

   1    90.0000   120.0000 # cp-cp-cp
   2    44.2000   120.0000 # cp-cp-c2
   3    37.0000   120.0000 # cp-cp-h
   4    44.2000   120.0000 # cp-cp-c
   5    46.6000   110.5000 # cp-c-cp
   6    44.4000   110.0000 # cp-c2-h
   7    46.6000   110.5000 # cp-c2-c2
   8    44.4000   110.0000 # h-c2-c2
   9    39.5000   106.4000 # h-c2-h

Dihedral Coeffs # harmonic

  1     3.0000  -1   2 # cp-cp-cp-cp
  2     3.0000  -1   2 # cp-cp-cp-h
  3     3.0000  -1   2 # cp-cp-cp-c2
  4     3.0000  -1   2 # h-cp-cp-c2
  5     0.0000   1   2 # cp-cp-c2-c2
  6     0.0000   1   2 # cp-cp-c2-h
  7     3.0000  -1   2 # h-cp-cp-h
  8     3.0000  -1   2 # cp-cp-cp-c
  9     3.0000  -1   2 # h-cp-cp-c
 10     0.6750   1   4 # cp-cp-c-cp
 11     0.1581   1   3 # cp-c2-c2-cp
 12     0.1581   1   3 # cp-c2-c2-h
 13     0.1581   1   3 # h-c2-c2-h

Improper Coeffs # cvff

    1     0.3700  -1   2 # cp-cp-cp-c2
    2     0.3700  -1   2 # cp-cp-cp-h
    3     0.3700  -1   2 # cp-cp-cp-c

Atoms # full

      1      1   1  0.000000    28.336500000     5.018790000    11.353800000   0   0   0 # cp
      2      1   1 -0.100000    26.999400000     5.234820000    11.081200000   0   0   0 # cp
      3      1   1 -0.100000    26.304000000     4.295540000    10.385700000   0   0   0 # cp
      4      1   1  0.000000    26.900900000     3.108640000     9.959730000   0   0   0 # cp
      5      1   1 -0.100000    28.213900000     2.886120000    10.301800000   0   0   0 # cp
      6      1   1 -0.100000    28.937000000     3.843250000    10.965700000   0   0   0 # cp
      7      1   2  0.100000    26.561500000     6.175900000    11.379100000   0   0   0 # h
      8      1   2  0.100000    25.254000000     4.516580000    10.232500000   0   0   0 # h
      9      1   2  0.100000    28.719300000     1.940480000    10.086500000   0   0   0 # h
     10      1   2  0.100000    29.977100000     3.649130000    11.219300000   0   0   0 # h
     11      1   1 -0.100000    27.857000000     1.004790000     7.747220000   0   0   0 # cp
     12      1   1  0.000000    26.714300000     0.785503000     8.481560000   0   0   0 # cp
     13      1   1 -0.100000    26.195600060    -0.509266461     8.494510000   0   1   0 # cp
     14      1   1 -0.100000    26.938623805    -1.558352535     8.045250000   0   1   0 # cp
     15      1   1  0.000000    28.179523805    -1.349752535     7.528550000   0   1   0 # cp
     16      1   1 -0.100000    28.617100000    -0.048190300     7.313450000   0   0   0 # cp
     17      1   3  0.000000    25.966300000     1.979040000     9.275390000   0   0   0 # c
     18      1   1  0.000000    25.077300000     2.572550000     8.109150000   0   0   0 # cp
     19      1   1 -0.100000    23.858900000     2.004970000     7.721220000   0   0   0 # cp
     20      1   1 -0.100000    23.041200000     2.601950000     6.807810000   0   0   0 # cp
     21      1   1  0.000000    23.425600000     3.757330000     6.187980000   0   0   0 # cp
     22      1   1 -0.100000    24.666500000     4.270600000     6.451750000   0   0   0 # cp
     23      1   1 -0.100000    25.510000000     3.653590000     7.379470000   0   0   0 # cp
     24      1   1 -0.100000    26.138400000     0.661737000    11.450500000   0   0   0 # cp
     25      1   1 -0.100000    25.628900000     0.114920000    12.597600000   0   0   0 # cp
     26      1   1  0.000000    24.252000000     0.071122800    12.818100000   0   0   0 # cp
     27      1   1 -0.100000    23.495100000     0.956497000    12.051700000   0   0   0 # cp
     28      1   1 -0.100000    24.036200000     1.627000000    10.969800000   0   0   0 # cp
     29      1   1  0.000000    25.348800000     1.424120000    10.624400000   0   0   0 # cp
     30      1   3  0.000000    23.629600060    -0.799094461    14.032400000   0   1   0 # c
     31      1   1  0.000000    26.027000000    61.048500000    15.095000000   0   0   0 # cp
     32      1   1 -0.100000    25.453700000    61.826900000    16.079500000   0   0   0 # cp
     33      1   1 -0.100000    24.498200000    62.741100000    15.769000000   0   0   0 # cp
     34      1   1  0.000000    24.103700000    62.907800000    14.451400000   0   0   0 # cp
     35      1   1 -0.100000    24.650800000    62.057500000    13.472100000   0   0   0 # cp
     36      1   1 -0.100000    25.595400000    61.128700000    13.801000000   0   0   0 # cp
     37      1   1  0.000000    22.317823805    -1.658852535    13.705700000   0   1   0 # cp
     38      1   1 -0.100000    21.676823805    -1.648152535    12.471900000   0   1   0 # cp
     39      1   1 -0.100000    19.897900000    62.772600000    12.296300000   0   0   0 # cp
     40      1   1  0.000000    19.210900000    62.258900000    13.350500000   0   0   0 # cp
     41      1   1 -0.100000    19.823300000    62.115100000    14.559500000   0   0   0 # cp
     42      1   1 -0.100000    21.106500000    62.611600000    14.761800000   0   0   0 # cp
     43      1   1 -0.100000    22.046400000     0.802254000    15.312000000   0   0   0 # cp
     44      1   1 -0.100000    21.762000000     1.748500000    16.239800000   0   0   0 # cp
     45      1   1  0.000000    22.750000000     2.265320000    17.020900000   0   0   0 # cp
     46      1   1 -0.100000    24.045000000     1.899340000    16.790900000   0   0   0 # cp
     47      1   1 -0.100000    24.333100000     0.966477000    15.820600000   0   0   0 # cp
     48      1   1  0.000000    23.315600000     0.331942000    15.128200000   0   0   0 # cp
     49      1   2  0.100000    28.251900000     2.001140000     7.616290000   0   0   0 # h
     50      1   2  0.100000    25.245100060    -0.701787461     8.947350000   0   1   0 # h
     51      1   2  0.100000    26.019300000    62.320300000     8.150690000   0   0   0 # h
     52      1   2  0.100000    29.558100000     0.143956000     6.791180000   0   0   0 # h
     53      1   2  0.100000    23.449400000     1.112250000     8.219250000   0   0   0 # h
     54      1   2  0.100000    22.110900000     2.115450000     6.580100000   0   0   0 # h
     55      1   2  0.100000    24.977900000     5.156720000     5.941040000   0   0   0 # h
     56      1   2  0.100000    26.519500000     4.002430000     7.491360000   0   0   0 # h
     57      1   2  0.100000    27.173100000     0.439015000    11.222100000   0   0   0 # h
     58      1   2  0.100000    26.356800060    -0.395772461    13.222100000   0   1   0 # h
     59      1   2  0.100000    22.464200000     1.101060000    12.308400000   0   0   0 # h
     60      1   2  0.100000    23.386600000     2.226570000    10.355500000   0   0   0 # h
     61      1   2  0.100000    25.788600000    61.737400000    17.100400000   0   0   0 # h
     62      1   2  0.100000    24.607323805    -1.522152535    16.586000000   0   1   0 # h
     63      1   2  0.100000    24.367400000    62.196200000    12.458600000   0   0   0 # h
     64      1   2  0.100000    26.056300000    60.564900000    12.996800000   0   0   0 # h
     65      1   2  0.100000    22.183123805    -1.236652535    11.648000000   0   1   0 # h
     66      1   2  0.100000    19.409700000    62.813200000    11.347400000   0   0   0 # h
     67      1   2  0.100000    19.248100000    61.711900000    15.404200000   0   0   0 # h
     68      1   2  0.100000    21.521600000    62.574800000    15.744100000   0   0   0 # h
     69      1   2  0.100000    21.201200000     0.511606000    14.694300000   0   0   0 # h
     70      1   2  0.100000    20.729100000     2.004220000    16.421700000   0   0   0 # h
     71      1   2  0.100000    24.852800000     2.275400000    17.371000000   0   0   0 # h
     72      1   2  0.100000    25.358300000     0.632260000    15.673000000   0   0   0 # h
     73      1   1  0.000000    27.954900000     3.179850000    24.911900000   0   0   0 # cp
     74      1   1 -0.100000    26.623800000     3.453150000    24.688400000   0   0   0 # cp
     75      1   1 -0.100000    25.830500000     2.480780000    24.140500000   0   0   0 # cp
     76      1   1  0.000000    26.308700000     1.192730000    23.885600000   0   0   0 # cp
     77      1   1 -0.100000    27.640400000     0.942010000    24.182500000   0   0   0 # cp
     78      1   1 -0.100000    28.448200000     1.919900000    24.691700000   0   0   0 # cp
     79      1   2  0.100000    26.208800000     4.403520000    24.968400000   0   0   0 # h
     80      1   2  0.100000    24.780900000     2.688000000    24.046900000   0   0   0 # h
     81      1   2  0.100000    28.037700000    -0.081145600    24.161200000   0   0   0 # h
     82      1   2  0.100000    29.475200000     1.720660000    24.931000000   0   0   0 # h
     83      1   1 -0.100000    27.144723805    -1.251052535    21.863300000   0   1   0 # cp
     84      1   1  0.000000    26.019923805    -1.299152535    22.696900000   0   1   0 # cp
     85      1   1 -0.100000    24.899800000    62.338300000    22.861100000   0   0   0 # cp
     86      1   1 -0.100000    25.418100000    61.192500000    22.331000000   0   0   0 # cp
     87      1   1  0.000000    26.580400000    61.207300000    21.600300000   0   0   0 # cp
     88      1   1 -0.100000    27.158100000    62.447700000    21.371100000   0   0   0 # cp
     89      1   3  0.000000    25.348900000    -0.006882150    23.407800000   0   0   0 # c
     90      1   1  0.000000    24.427300000     0.515867000    22.218700000   0   0   0 # cp
     91      1   1 -0.100000    23.142400000     0.061419000    21.965800000   0   0   0 # cp
     92      1   1 -0.100000    22.348600000     0.664711000    21.012300000   0   0   0 # cp
     93      1   1  0.000000    22.846700000     1.674390000    20.240000000   0   0   0 # cp
     94      1   1 -0.100000    24.163800000     2.004660000    20.336600000   0   0   0 # cp
     95      1   1 -0.100000    24.942200000     1.450330000    21.341700000   0   0   0 # cp
     96      1   1 -0.100000    25.484900060    -1.025537461    25.734200000   0   1   0 # cp
     97      1   1 -0.100000    25.048500060    -1.257057461    27.013600000   0   1   0 # cp
     98      1   1  0.000000    23.777300060    -0.938473461    27.413100000   0   1   0 # cp
     99      1   1 -0.100000    22.971600000    -0.245107000    26.510000000   0   0   0 # cp
    100      1   1 -0.100000    23.443700000     0.031909700    25.241000000   0   0   0 # cp
    101      1   1  0.000000    24.692900000    -0.366126000    24.811000000   0   0   0 # cp
    102      1   3  0.000000    23.121700060    -0.891397461     1.320230000   0   1   0 # c
    103      1   1  0.000000    25.517500000    61.149100000     2.818570000   0   0   0 # cp
    104      1   1 -0.100000    25.151800000    62.221000000     3.614040000   0   0   0 # cp
    105      1   1 -0.100000    24.116600000    63.044900000     3.240820000   0   0   0 # cp
    106      1   1  0.000000    23.472100000    62.866200000     2.032680000   0   0   0 # cp
    107      1   1 -0.100000    23.754700000    61.686300000     1.332870000   0   0   0 # cp
    108      1   1 -0.100000    24.773700000    60.860000000     1.700610000   0   0   0 # cp
    109      1   1  0.000000    21.688123805    -1.593052535     1.361090000   0   1   0 # cp
    110      1   1 -0.100000    20.527332347    62.783211506     0.221872274   0   0   0 # cp
    111      1   1 -0.100000    19.217432347    62.426411506     0.236572274   0   0   0 # cp
    112      1   1  0.000000    18.499100000    62.544900000     1.386590000   0   0   0 # cp
    113      1   1 -0.100000    19.118200000    62.953400000     2.538160000   0   0   0 # cp
    114      1   1 -0.100000    20.969623805    -1.603052535     2.534660000   0   1   0 # cp
    115      1   1 -0.100000    21.871900000     1.311540000     2.054860000   0   0   0 # cp
    116      1   1 -0.100000    21.881300000     2.562830000     2.608790000   0   0   0 # cp
    117      1   1  0.000000    23.045500000     3.097170000     3.076910000   0   0   0 # cp
    118      1   1 -0.100000    24.218300000     2.413210000     2.989120000   0   0   0 # cp
    119      1   1 -0.100000    24.242600000     1.144460000     2.408620000   0   0   0 # cp
    120      1   1  0.000000    23.057400000     0.545577000     2.008580000   0   0   0 # cp
    121      1   2  0.100000    27.632500000    -0.308577000    21.628700000   0   0   0 # h
    122      1   2  0.100000    23.933700000    62.199300000    23.393100000   0   0   0 # h
    123      1   2  0.100000    24.868000000    60.279900000    22.414900000   0   0   0 # h
    124      1   2  0.100000    28.088700000    62.484800000    20.861700000   0   0   0 # h
    125      1   2  0.100000    22.708100060    -0.690492461    22.624200000   0   1   0 # h
    126      1   2  0.100000    21.314000000     0.376613000    20.929300000   0   0   0 # h
    127      1   2  0.100000    24.604800000     2.786990000    19.711200000   0   0   0 # h
    128      1   2  0.100000    25.978000000     1.785420000    21.405800000   0   0   0 # h
    129      1   2  0.100000    26.489723805    -1.298952535    25.483400000   0   1   0 # h
    130      1   2  0.100000    25.673156152    -1.284341029     0.112372274   0   1   0 # h
    131      1   2  0.100000    21.992700000     0.061654100    26.808100000   0   0   0 # h
    132      1   2  0.100000    22.838000000     0.695795000    24.614200000   0   0   0 # h
    133      1   2  0.100000    25.679300000    62.386800000     4.535340000   0   0   0 # h
    134      1   2  0.100000    24.359100060    -1.010037461     3.895180000   0   1   0 # h
    135      1   2  0.100000    23.267032347    61.495111506     0.427272274   0   0   0 # h
    136      1   2  0.100000    25.028400000    60.044500000     1.068170000   0   0   0 # h
    137      1   2  0.100000    21.203100000    62.231400000    26.886300000   0   0   0 # h
    138      1   2  0.100000    18.818100000    61.644100000    26.892500000   0   0   0 # h
    139      1   2  0.100000    18.533900000    63.062300000     3.440460000   0   0   0 # h
    140      1   2  0.100000    21.405900060    -1.243047461     3.455170000   0   1   0 # h
    141      1   2  0.100000    20.965800000     0.903593000     1.671540000   0   0   0 # h
    142      1   2  0.100000    20.970500000     3.116300000     2.667110000   0   0   0 # h
    143      1   2  0.100000    25.147400000     2.882560000     3.307810000   0   0   0 # h
    144      1   2  0.100000    25.164200000     0.610993000     2.290890000   0   0   0 # h
    145      1   1  0.000000    34.133600000    55.182000000     0.640326000   0   0   0 # cp
    146      1   1 -0.100000    35.182800000    55.901300000     1.198400000   0   0   0 # cp
    147      1   1 -0.100000    34.909000000    57.056100000     1.916630000   0   0   0 # cp
    148      1   1  0.000000    33.599300000    57.548500000     2.024640000   0   0   0 # cp
    149      1   1 -0.100000    32.597600000    56.785400000     1.440290000   0   0   0 # cp
    150      1   1 -0.100000    32.848300000    55.613400000     0.780230000   0   0   0 # cp
    151      1   2  0.100000    36.182200000    55.513600000     1.176510000   0   0   0 # h
    152      1   2  0.100000    35.756900000    57.561300000     2.353990000   0   0   0 # h
    153      1   2  0.100000    31.581700000    57.063900000     1.586930000   0   0   0 # h
    154      1   2  0.100000    32.031000000    55.017900000     0.450802000   0   0   0 # h
    155      1   1 -0.100000    31.362500000    59.679000000     1.539710000   0   0   0 # cp
    156      1   1  0.000000    31.878700000    59.524900000     2.813050000   0   0   0 # cp
    157      1   1 -0.100000    31.165700000    60.058600000     3.887310000   0   0   0 # cp
    158      1   1 -0.100000    29.925900000    60.643600000     3.670980000   0   0   0 # cp
    159      1   1  0.000000    29.350100000    60.638100000     2.420300000   0   0   0 # cp
    160      1   1 -0.100000    30.085600000    60.177600000     1.347290000   0   0   0 # cp
    161      1   3  0.000000    33.245300000    58.734900000     3.040130000   0   0   0 # c
    162      1   1  0.000000    34.246100000    60.002100000     3.092290000   0   0   0 # cp
    163      1   1 -0.100000    34.342500000    60.816300000     4.211540000   0   0   0 # cp
    164      1   1 -0.100000    35.267400000    61.818100000     4.293490000   0   0   0 # cp
    165      1   1  0.000000    36.033600000    62.129300000     3.179870000   0   0   0 # cp
    166      1   1 -0.100000    35.920600000    61.361800000     2.029690000   0   0   0 # cp
    167      1   1 -0.100000    34.986400000    60.334100000     1.976130000   0   0   0 # cp
    168      1   1 -0.100000    31.956900000    57.129800000     4.601030000   0   0   0 # cp
    169      1   1 -0.100000    31.712700000    56.622400000     5.855900000   0   0   0 # cp
    170      1   1  0.000000    32.634700000    56.771500000     6.875130000   0   0   0 # cp
    171      1   1 -0.100000    33.877400000    57.230300000     6.549960000   0   0   0 # cp
    172      1   1 -0.100000    34.125200000    57.782100000     5.321520000   0   0   0 # cp
    173      1   1  0.000000    33.125000000    57.854300000     4.377350000   0   0   0 # cp
    174      1   3  0.000000    32.178000000    56.670900000     8.388560000   0   0   0 # c
    175      1   1  0.000000    29.993400000    60.514900000     8.421700000   0   0   0 # cp
    176      1   1 -0.100000    29.320500000    59.315300000     8.252380000   0   0   0 # cp
    177      1   1 -0.100000    30.020400000    58.154900000     8.272020000   0   0   0 # cp
    178      1   1  0.000000    31.395700000    58.102500000     8.502350000   0   0   0 # cp
    179      1   1 -0.100000    32.057000000    59.316600000     8.586030000   0   0   0 # cp
    180      1   1 -0.100000    31.364800000    60.500800000     8.584560000   0   0   0 # cp
    181      1   1  0.000000    33.412300000    56.440300000     9.383570000   0   0   0 # cp
    182      1   1 -0.100000    34.276600000    55.375400000     9.208320000   0   0   0 # cp
    183      1   1 -0.100000    35.323900000    55.157000000    10.083500000   0   0   0 # cp
    184      1   1  0.000000    35.522900000    55.974000000    11.151600000   0   0   0 # cp
    185      1   1 -0.100000    34.665000000    57.015900000    11.351000000   0   0   0 # cp
    186      1   1 -0.100000    33.569700000    57.206300000    10.520300000   0   0   0 # cp
    187      1   1 -0.100000    30.544600000    55.438900000     9.937070000   0   0   0 # cp
    188      1   1 -0.100000    29.713800000    54.409100000    10.252600000   0   0   0 # cp
    189      1   1  0.000000    29.635900000    53.263700000     9.476930000   0   0   0 # cp
    190      1   1 -0.100000    30.407500000    53.204900000     8.354740000   0   0   0 # cp
    191      1   1 -0.100000    31.244400000    54.246000000     8.005520000   0   0   0 # cp
    192      1   1  0.000000    31.298400000    55.428200000     8.775210000   0   0   0 # cp
    193      1   2  0.100000    31.959200000    59.415600000     0.676579000   0   0   0 # h
    194      1   2  0.100000    31.606900000    60.118200000     4.880980000   0   0   0 # h
    195      1   2  0.100000    29.417200000    61.160200000     4.466740000   0   0   0 # h
    196      1   2  0.100000    29.642832347    60.229011506     0.353072274   0   0   0 # h
    197      1   2  0.100000    33.746700000    60.576700000     5.081200000   0   0   0 # h
    198      1   2  0.100000    35.334500000    62.404500000     5.211040000   0   0   0 # h
    199      1   2  0.100000    36.562600000    61.519400000     1.145720000   0   0   0 # h
    200      1   2  0.100000    34.924500000    59.754900000     1.073810000   0   0   0 # h
    201      1   2  0.100000    31.193300000    57.090800000     3.837630000   0   0   0 # h
    202      1   2  0.100000    30.731300000    56.280900000     6.145100000   0   0   0 # h
    203      1   2  0.100000    34.664300000    57.276800000     7.303300000   0   0   0 # h
    204      1   2  0.100000    35.086400000    58.241700000     5.140490000   0   0   0 # h
    205      1   2  0.100000    28.258700000    59.315200000     8.090850000   0   0   0 # h
    206      1   2  0.100000    29.475700000    57.255400000     8.028810000   0   0   0 # h
    207      1   2  0.100000    33.134400000    59.327600000     8.623450000   0   0   0 # h
    208      1   2  0.100000    31.933300000    61.422400000     8.733930000   0   0   0 # h
    209      1   2  0.100000    34.191500000    54.700300000     8.386720000   0   0   0 # h
    210      1   2  0.100000    36.045000000    54.367100000     9.924860000   0   0   0 # h
    211      1   2  0.100000    34.724800000    57.617900000    12.258300000   0   0   0 # h
    212      1   2  0.100000    32.811200000    57.939400000    10.768600000   0   0   0 # h
    213      1   2  0.100000    30.574800000    56.265500000    10.626800000   0   0   0 # h
    214      1   2  0.100000    29.161200000    54.511200000    11.167700000   0   0   0 # h
    215      1   2  0.100000    30.400200000    52.292400000     7.745910000   0   0   0 # h
    216      1   2  0.100000    31.876000000    54.156900000     7.121980000   0   0   0 # h
    217      1   1  0.000000    35.437300000    55.513500000    14.425900000   0   0   0 # cp
    218      1   1 -0.100000    36.084300000    56.138600000    15.471700000   0   0   0 # cp
    219      1   1 -0.100000    35.425900000    56.995600000    16.310100000   0   0   0 # cp
    220      1   1  0.000000    34.085400000    57.249900000    16.098900000   0   0   0 # cp
    221      1   1 -0.100000    33.422400000    56.505600000    15.118000000   0   0   0 # cp
    222      1   1 -0.100000    34.107100000    55.614600000    14.324000000   0   0   0 # cp
    223      1   2  0.100000    37.150500000    56.026300000    15.546000000   0   0   0 # h
    224      1   2  0.100000    36.017300000    57.476000000    17.091700000   0   0   0 # h
    225      1   2  0.100000    32.380900000    56.629700000    14.979700000   0   0   0 # h
    226      1   2  0.100000    33.633400000    55.123800000    13.491900000   0   0   0 # h
    227      1   1 -0.100000    31.848800000    59.301000000    15.366800000   0   0   0 # cp
    228      1   1  0.000000    32.072700000    58.956200000    16.689200000   0   0   0 # cp
    229      1   1 -0.100000    31.102000000    59.359400000    17.606400000   0   0   0 # cp
    230      1   1 -0.100000    29.963600000    60.036300000    17.200700000   0   0   0 # cp
    231      1   1  0.000000    29.760300000    60.275800000    15.856000000   0   0   0 # cp
    232      1   1 -0.100000    30.718600000    59.933700000    14.944600000   0   0   0 # cp
    233      1   3  0.000000    33.392700000    58.232700000    17.161300000   0   0   0 # c
    234      1   1  0.000000    34.305400000    59.491100000    17.560100000   0   0   0 # cp
    235      1   1 -0.100000    34.363500000    60.038200000    18.834400000   0   0   0 # cp
    236      1   1 -0.100000    35.299200000    60.985900000    19.148000000   0   0   0 # cp
    237      1   1  0.000000    36.132400000    61.462800000    18.179200000   0   0   0 # cp
    238      1   1 -0.100000    35.988500000    61.012100000    16.878500000   0   0   0 # cp
    239      1   1 -0.100000    35.069700000    60.077300000    16.561000000   0   0   0 # cp
    240      1   1 -0.100000    32.031600000    56.302000000    18.085000000   0   0   0 # cp
    241      1   1 -0.100000    31.607400000    55.465700000    19.039300000   0   0   0 # cp
    242      1   1  0.000000    32.264100000    55.381000000    20.239500000   0   0   0 # cp
    243      1   1 -0.100000    33.368500000    56.190300000    20.435500000   0   0   0 # cp
    244      1   1 -0.100000    33.806100000    57.014300000    19.433900000   0   0   0 # cp
    245      1   1  0.000000    33.069600000    57.165800000    18.279200000   0   0   0 # cp
    246      1   3  0.000000    31.571800000    54.577500000    21.457300000   0   0   0 # c
    247      1   1  0.000000    28.747400000    57.903800000    22.061000000   0   0   0 # cp
    248      1   1 -0.100000    28.370600000    56.822100000    21.296100000   0   0   0 # cp
    249      1   1 -0.100000    29.215800000    55.729900000    21.185200000   0   0   0 # cp
    250      1   1  0.000000    30.453900000    55.686700000    21.841100000   0   0   0 # cp
    251      1   1 -0.100000    30.828800000    56.839100000    22.554700000   0   0   0 # cp
    252      1   1 -0.100000    29.975800000    57.905000000    22.690100000   0   0   0 # cp
    253      1   1  0.000000    32.440400000    54.195200000    22.711500000   0   0   0 # cp
    254      1   1 -0.100000    33.784200000    53.864800000    22.613200000   0   0   0 # cp
    255      1   1 -0.100000    34.528100000    53.543700000    23.720000000   0   0   0 # cp
    256      1   1  0.000000    33.971300000    53.544200000    24.965200000   0   0   0 # cp
    257      1   1 -0.100000    32.632800000    53.721400000    25.088700000   0   0   0 # cp
    258      1   1 -0.100000    31.881200000    54.103000000    24.004400000   0   0   0 # cp
    259      1   1 -0.100000    29.937200000    52.510800000    21.605000000   0   0   0 # cp
    260      1   1 -0.100000    29.456200000    51.295500000    21.187600000   0   0   0 # cp
    261      1   1  0.000000    30.003500000    50.655700000    20.094400000   0   0   0 # cp
    262      1   1 -0.100000    31.087700000    51.247000000    19.492700000   0   0   0 # cp
    263      1   1 -0.100000    31.609600000    52.437200000    19.939500000   0   0   0 # cp
    264      1   1  0.000000    31.006700000    53.142900000    20.980900000   0   0   0 # cp
    265      1   2  0.100000    32.584800000    59.068500000    14.622000000   0   0   0 # h
    266      1   2  0.100000    31.172400000    59.161300000    18.655700000   0   0   0 # h
    267      1   2  0.100000    29.256100000    60.323000000    17.958400000   0   0   0 # h
    268      1   2  0.100000    30.624400000    60.149600000    13.889400000   0   0   0 # h
    269      1   2  0.100000    33.732400000    59.690100000    19.638400000   0   0   0 # h
    270      1   2  0.100000    35.441900000    61.295000000    20.161800000   0   0   0 # h
    271      1   2  0.100000    36.607000000    61.447300000    16.098700000   0   0   0 # h
    272      1   2  0.100000    34.933700000    59.763400000    15.548900000   0   0   0 # h
    273      1   2  0.100000    31.405400000    56.310400000    17.197600000   0   0   0 # h
    274      1   2  0.100000    30.709800000    54.899900000    18.801000000   0   0   0 # h
    275      1   2  0.100000    33.873900000    56.236000000    21.409700000   0   0   0 # h
    276      1   2  0.100000    34.713700000    57.578800000    19.581100000   0   0   0 # h
    277      1   2  0.100000    27.441300000    56.804200000    20.733600000   0   0   0 # h
    278      1   2  0.100000    28.943800000    54.888500000    20.558100000   0   0   0 # h
    279      1   2  0.100000    31.807000000    56.884700000    23.032400000   0   0   0 # h
    280      1   2  0.100000    30.319700000    58.751200000    23.222600000   0   0   0 # h
    281      1   2  0.100000    34.283300000    53.835400000    21.669700000   0   0   0 # h
    282      1   2  0.100000    35.610000000    53.416500000    23.607500000   0   0   0 # h
    283      1   2  0.100000    32.126100000    53.571100000    26.039500000   0   0   0 # h
    284      1   2  0.100000    30.819200000    54.291800000    24.191800000   0   0   0 # h
    285      1   2  0.100000    29.461300000    53.016200000    22.430800000   0   0   0 # h
    286      1   2  0.100000    28.620800000    50.834100000    21.734200000   0   0   0 # h
    287      1   2  0.100000    31.554800000    50.780200000    18.613300000   0   0   0 # h
    288      1   2  0.100000    32.464700000    52.857100000    19.377200000   0   0   0 # h
    289      1   1  0.000000    30.721100000     7.980280000    11.469400000   0   0   0 # cp
    290      1   1 -0.100000    30.625700000     9.324920000    11.772500000   0   0   0 # cp
    291      1   1 -0.100000    31.780800000    10.031800000    12.092200000   0   0   0 # cp
    292      1   1  0.000000    33.007500000     9.393870000    12.170300000   0   0   0 # cp
    293      1   1 -0.100000    33.082600000     8.051270000    11.833000000   0   0   0 # cp
    294      1   1 -0.100000    31.935900000     7.348000000    11.501500000   0   0   0 # cp
    295      1   2  0.100000    29.681100000     9.832920000    11.741900000   0   0   0 # h
    296      1   2  0.100000    31.708900000    11.122900000    12.231400000   0   0   0 # h
    297      1   2  0.100000    34.030400000     7.570380000    11.859200000   0   0   0 # h
    298      1   2  0.100000    32.024300000     6.309750000    11.229500000   0   0   0 # h
    299      1   1 -0.100000    35.320900000     8.460720000    14.067200000   0   0   0 # cp