LAMMPS data file. msi2lmp v3.9.11 / 6 Sep 2024 / CGCMM for whq_2_opt

   2880 atoms
   3168 bonds
   5568 angles
   8928 dihedrals
   1344 impropers

   4 atom types
   6 bond types
   9 angle types
  13 dihedral types
   3 improper types

     0.767928757    43.511928757 xlo xhi
     0.502138105    42.433363060 ylo yhi
     0.219431475    50.540284999 zlo zhi
     0.079331327     0.539985827    -0.274620003 xy xz yz

Masses

   1  12.011150 # cp
   2   1.007970 # h
   3  12.011150 # c
   4  12.011150 # c2

Pair Coeffs # lj/cut/coul/long

   1   0.1479999981   3.6170487995 # cp
   2   0.0380000011   2.4499714540 # h
   3   0.1599999990   3.4745050026 # c
   4   0.0389999952   3.8754094636 # c2

Bond Coeffs # harmonic

   1   480.0000     1.3400 # cp-cp
   2   283.0924     1.5100 # cp-c2
   3   363.4164     1.0800 # cp-h
   4   283.0924     1.5100 # cp-c
   5   322.7158     1.5260 # c2-c2
   6   340.6175     1.1050 # h-c2

Angle Coeffs # harmonic

   1    90.0000   120.0000 # cp-cp-cp
   2    44.2000   120.0000 # cp-cp-c2
   3    37.0000   120.0000 # cp-cp-h
   4    44.2000   120.0000 # cp-cp-c
   5    46.6000   110.5000 # cp-c-cp
   6    46.6000   110.5000 # cp-c2-c2
   7    44.4000   110.0000 # cp-c2-h
   8    44.4000   110.0000 # h-c2-c2
   9    39.5000   106.4000 # h-c2-h

Dihedral Coeffs # harmonic

  1     3.0000  -1   2 # cp-cp-cp-cp
  2     3.0000  -1   2 # cp-cp-cp-h
  3     3.0000  -1   2 # cp-cp-cp-c2
  4     3.0000  -1   2 # h-cp-cp-c2
  5     0.0000   1   2 # cp-cp-c2-c2
  6     0.0000   1   2 # cp-cp-c2-h
  7     3.0000  -1   2 # h-cp-cp-h
  8     3.0000  -1   2 # cp-cp-cp-c
  9     3.0000  -1   2 # h-cp-cp-c
 10     0.6750   1   4 # cp-cp-c-cp
 11     0.1581   1   3 # cp-c2-c2-cp
 12     0.1581   1   3 # cp-c2-c2-h
 13     0.1581   1   3 # h-c2-c2-h

Improper Coeffs # cvff

    1     0.3700  -1   2 # cp-cp-cp-c2
    2     0.3700  -1   2 # cp-cp-cp-h
    3     0.3700  -1   2 # cp-cp-cp-c

Atoms # full

      1      1   1  0.000000    25.576400000    34.932400000    14.509100000   0   0   0 # cp
      2      1   1 -0.100000    26.032600000    34.389700000    13.325500000   0   0   0 # cp
      3      1   1 -0.100000    25.421700000    33.313800000    12.692300000   0   0   0 # cp
      4      1   1  0.000000    24.339800000    32.708600000    13.310600000   0   0   0 # cp
      5      1   1 -0.100000    23.803100000    33.338400000    14.422200000   0   0   0 # cp
      6      1   1 -0.100000    24.401000000    34.403900000    15.012000000   0   0   0 # cp
      7      1   2  0.100000    26.874800000    34.832000000    12.823900000   0   0   0 # h
      8      1   2  0.100000    25.845500000    33.004700000    11.780000000   0   0   0 # h
      9      1   2  0.100000    22.863100000    32.988100000    14.829700000   0   0   0 # h
     10      1   2  0.100000    23.957000000    34.834700000    15.919600000   0   0   0 # h
     11      1   1 -0.100000    23.651400000    30.239400000    14.956100000   0   0   0 # cp
     12      1   1  0.000000    23.076500000    30.377000000    13.682000000   0   0   0 # cp
     13      1   1 -0.100000    21.994000000    29.566000000    13.369500000   0   0   0 # cp
     14      1   1 -0.100000    21.390200000    28.831000000    14.342700000   0   0   0 # cp
     15      1   1  0.000000    21.875000000    28.845600000    15.608300000   0   0   0 # cp
     16      1   1 -0.100000    23.061300000    29.460400000    15.896300000   0   0   0 # cp
     17      1   3  0.000000    23.711200000    31.371200000    12.678300000   0   0   0 # c
     18      1   1  0.000000    24.791200000    30.407800000    12.023800000   0   0   0 # cp
     19      1   1 -0.100000    24.479000000    29.623600000    10.920300000   0   0   0 # cp
     20      1   1 -0.100000    25.411000000    28.756700000    10.405900000   0   0   0 # cp
     21      1   1  0.000000    26.634200000    28.618200000    10.994700000   0   0   0 # cp
     22      1   1 -0.100000    26.931900000    29.335300000    12.121800000   0   0   0 # cp
     23      1   1 -0.100000    26.036500000    30.236800000    12.622900000   0   0   0 # cp
     24      1   1 -0.100000    21.364100000    32.427000000    12.254500000   0   0   0 # cp
     25      1   1 -0.100000    20.377400000    32.992400000    11.491600000   0   0   0 # cp
     26      1   1  0.000000    20.586500000    33.191100000    10.155300000   0   0   0 # cp
     27      1   1 -0.100000    21.875500000    32.944800000     9.667180000   0   0   0 # cp
     28      1   1 -0.100000    22.875800000    32.431600000    10.481700000   0   0   0 # cp
     29      1   1  0.000000    22.594200000    32.058900000    11.754500000   0   0   0 # cp
     30      1   3  0.000000    19.356900000    33.531700000     9.178810000   0   0   0 # c
     31      1   1  0.000000    18.420200000    29.300900000     8.575960000   0   0   0 # cp
     32      1   1 -0.100000    17.739400000    30.043300000     9.494790000   0   0   0 # cp
     33      1   1 -0.100000    18.043700000    31.360000000     9.699630000   0   0   0 # cp
     34      1   1  0.000000    18.950200000    32.034300000     8.878100000   0   0   0 # cp
     35      1   1 -0.100000    19.568200000    31.266200000     7.911670000   0   0   0 # cp
     36      1   1 -0.100000    19.322700000    29.938700000     7.768120000   0   0   0 # cp
     37      1   1  0.000000    19.757200000    34.392300000     7.880450000   0   0   0 # cp
     38      1   1 -0.100000    20.779100000    35.320300000     7.924940000   0   0   0 # cp
     39      1   1 -0.100000    21.144700000    36.020400000     6.799990000   0   0   0 # cp
     40      1   1  0.000000    20.370900000    35.949900000     5.668550000   0   0   0 # cp
     41      1   1 -0.100000    19.312100000    35.067100000     5.644610000   0   0   0 # cp
     42      1   1 -0.100000    19.018300000    34.289500000     6.733120000   0   0   0 # cp
     43      1   1 -0.100000    16.900100000    34.393000000     9.377120000   0   0   0 # cp
     44      1   1 -0.100000    15.944800000    35.326000000     9.754270000   0   0   0 # cp
     45      1   1  0.000000    16.319700000    36.396100000    10.507000000   0   0   0 # cp
     46      1   1 -0.100000    17.625400000    36.527800000    10.882200000   0   0   0 # cp
     47      1   1 -0.100000    18.581900000    35.595400000    10.531200000   0   0   0 # cp
     48      1   1  0.000000    18.238000000    34.490900000     9.737620000   0   0   0 # cp
     49      1   2  0.100000    24.587300000    30.727800000    15.178800000   0   0   0 # h
     50      1   2  0.100000    21.605200000    29.544200000    12.364700000   0   0   0 # h
     51      1   2  0.100000    20.499000000    28.253300000    14.124200000   0   0   0 # h
     52      1   2  0.100000    23.534900000    29.377600000    16.880700000   0   0   0 # h
     53      1   2  0.100000    23.495500000    29.705900000    10.477100000   0   0   0 # h
     54      1   2  0.100000    25.283300000    28.246000000     9.472250000   0   0   0 # h
     55      1   2  0.100000    27.888500000    29.207600000    12.639500000   0   0   0 # h
     56      1   2  0.100000    26.263100000    30.758200000    13.535100000   0   0   0 # h
     57      1   2  0.100000    21.117800000    32.207200000    13.303200000   0   0   0 # h
     58      1   2  0.100000    19.414800000    33.161600000    11.920300000   0   0   0 # h
     59      1   2  0.100000    22.151300000    33.083300000     8.596300000   0   0   0 # h
     60      1   2  0.100000    23.859700000    32.292000000    10.062700000   0   0   0 # h
     61      1   2  0.100000    17.033500000    29.561900000    10.190000000   0   0   0 # h
     62      1   2  0.100000    17.589100000    31.872300000    10.508600000   0   0   0 # h
     63      1   2  0.100000    20.367300000    31.675700000     7.284260000   0   0   0 # h
     64      1   2  0.100000    19.913100000    29.408400000     7.043500000   0   0   0 # h
     65      1   2  0.100000    21.310200000    35.515000000     8.830980000   0   0   0 # h
     66      1   2  0.100000    21.963500000    36.698800000     6.910190000   0   0   0 # h
     67      1   2  0.100000    18.673500000    34.967400000     4.765620000   0   0   0 # h
     68      1   2  0.100000    18.143200000    33.663800000     6.672930000   0   0   0 # h
     69      1   2  0.100000    16.528200000    33.593400000     8.738550000   0   0   0 # h
     70      1   2  0.100000    14.912300000    35.182100000     9.474440000   0   0   0 # h
     71      1   2  0.100000    17.902600000    37.396900000    11.477800000   0   0   0 # h
     72      1   2  0.100000    19.601200000    35.739300000    10.854700000   0   0   0 # h
     73      1   1  0.000000    17.542300000    34.797200000    45.455800000   0   0   0 # cp
     74      1   1 -0.100000    17.467100000    33.481500000    45.082800000   0   0   0 # cp
     75      1   1 -0.100000    18.596900000    32.771900000    44.803900000   0   0   0 # cp
     76      1   1  0.000000    19.832300000    33.380000000    44.745700000   0   0   0 # cp
     77      1   1 -0.100000    19.891300000    34.712800000    45.106000000   0   0   0 # cp
     78      1   1 -0.100000    18.753100000    35.434600000    45.426900000   0   0   0 # cp
     79      1   2  0.100000    16.491200000    32.990200000    45.074100000   0   0   0 # h
     80      1   2  0.100000    18.505200000    31.704100000    44.622900000   0   0   0 # h
     81      1   2  0.100000    20.819500000    35.236700000    45.150600000   0   0   0 # h
     82      1   2  0.100000    18.803400000    36.503600000    45.641000000   0   0   0 # h
     83      1   1 -0.100000    21.987800000    34.205100000    42.729200000   0   0   0 # cp
     84      1   1  0.000000    22.323500000    33.260900000    43.670200000   0   0   0 # cp
     85      1   1 -0.100000    23.670000000    32.894300000    43.816600000   0   0   0 # cp
     86      1   1 -0.100000    24.617300000    33.481800000    43.048700000   0   0   0 # cp
     87      1   1  0.000000    24.269500000    34.447600000    42.127500000   0   0   0 # cp
     88      1   1 -0.100000    22.968000000    34.825800000    42.004300000   0   0   0 # cp
     89      1   3  0.000000    21.184600000    32.498000000    44.431500000   0   0   0 # c
     90      1   1  0.000000    20.970900000    31.272900000    43.449000000   0   0   0 # cp
     91      1   1 -0.100000    21.665100000    30.099700000    43.519200000   0   0   0 # cp
     92      1   1 -0.100000    21.463700000    29.048500000    42.650000000   0   0   0 # cp
     93      1   1  0.000000    20.579900000    29.208600000    41.621500000   0   0   0 # cp
     94      1   1 -0.100000    19.986100000    30.417700000    41.431600000   0   0   0 # cp
     95      1   1 -0.100000    20.147900000    31.445900000    42.337100000   0   0   0 # cp
     96      1   1 -0.100000    22.279700000    32.969400000    46.725700000   0   0   0 # cp
     97      1   1 -0.100000    22.445500000    32.737400000    48.052000000   0   0   0 # cp
     98      1   1  0.000000    21.876300000    31.622900000    48.655800000   0   0   0 # cp
     99      1   1 -0.100000    21.366800000    30.653600000    47.798900000   0   0   0 # cp
    100      1   1 -0.100000    21.113600000    30.900200000    46.500100000   0   0   0 # cp
    101      1   1  0.000000    21.566800000    32.078400000    45.932800000   0   0   0 # cp
    102      1   3  0.000000    21.799600000    31.388200000    50.237100000   0   0   0 # c
    103      1   1  0.000000    25.549999829    29.199000086    50.503584092   0   0  -1 # cp
    104      1   1 -0.100000    25.003814002    30.829220089     0.236830568   0   0   0 # cp
    105      1   1 -0.100000    24.363499829    31.252900086    50.518284092   0   0  -1 # cp
    106      1   1  0.000000    23.161799829    30.555900086    50.439684092   0   0  -1 # cp
    107      1   1 -0.100000    23.184500000    29.197600000    50.309100000   0   0   0 # cp
    108      1   1 -0.100000    24.371099829    28.515200086    50.383884092   0   0  -1 # cp
    109      1   1  0.000000    19.921414002    30.911420089     0.362530568   0   0   0 # cp
    110      1   1 -0.100000    19.250300000    30.902700000    50.034000000   0   0   0 # cp
    111      1   1 -0.100000    18.097299829    30.223600086    50.353584092   0   0  -1 # cp
    112      1   1  0.000000    17.569514002    29.575720089     1.040030568   0   0   0 # cp
    113      1   1 -0.100000    18.721314002    29.361720089     1.747530568   0   0   0 # cp
    114      1   1 -0.100000    19.867614002    30.060920089     1.446430568   0   0   0 # cp
    115      1   1 -0.100000    21.590714002    33.111820089     2.069630568   0   0   0 # cp
    116      1   1 -0.100000    21.378400000    34.225700000     2.855240000   0   0   0 # cp
    117      1   1  0.000000    20.601014002    35.268420089     2.373230568   0   0   0 # cp
    118      1   1 -0.100000    20.081414002    35.170920089     1.102430568   0   0   0 # cp
    119      1   1 -0.100000    20.329414002    34.075520089     0.338630568   0   0   0 # cp
    120      1   1  0.000000    21.115314002    33.027320089     0.784830568   0   0   0 # cp
    121      1   2  0.100000    20.955400000    34.462000000    42.548000000   0   0   0 # h
    122      1   2  0.100000    23.981300000    32.126200000    44.514600000   0   0   0 # h
    123      1   2  0.100000    25.640500000    33.157700000    43.133100000   0   0   0 # h
    124      1   2  0.100000    22.676800000    35.604400000    41.327700000   0   0   0 # h
    125      1   2  0.100000    22.458300000    30.002800000    44.250500000   0   0   0 # h
    126      1   2  0.100000    22.006100000    28.124600000    42.708800000   0   0   0 # h
    127      1   2  0.100000    19.388200000    30.622300000    40.565400000   0   0   0 # h
    128      1   2  0.100000    19.637700000    32.383800000    42.127300000   0   0   0 # h
    129      1   2  0.100000    22.633700000    33.927400000    46.348700000   0   0   0 # h
    130      1   2  0.100000    22.948700000    33.483300000    48.662400000   0   0   0 # h
    131      1   2  0.100000    20.937600000    29.730100000    48.165500000   0   0   0 # h
    132      1   2  0.100000    20.538300000    30.200700000    45.962500000   0   0   0 # h
    133      1   2  0.100000    25.937114002    31.315020089     0.335630568   0   0   0 # h
    134      1   2  0.100000    23.857114002    32.612920089     0.340130568   0   0   0 # h
    135      1   2  0.100000    22.316900000    28.579100000    50.113800000   0   0   0 # h
    136      1   2  0.100000    24.400300000    27.443900000    50.242100000   0   0   0 # h
    137      1   2  0.100000    19.198400000    31.697700000    49.279800000   0   0   0 # h
    138      1   2  0.100000    17.140100000    30.458900000    49.882500000   0   0   0 # h
    139      1   2  0.100000    18.745100000    28.704700000     2.595540000   0   0   0 # h
    140      1   2  0.100000    20.731314002    29.829620089     2.072530568   0   0   0 # h
    141      1   2  0.100000    22.156100000    32.286200000     2.486520000   0   0   0 # h
    142      1   2  0.100000    21.782100000    34.296700000     3.851430000   0   0   0 # h
    143      1   2  0.100000    19.444614002    35.914820089     0.668430568   0   0   0 # h
    144      1   2  0.100000    20.362800000    33.794100000    49.702000000   0   0   0 # h
    145      1   1  0.000000    35.265700000    20.732600000    14.381000000   0   0   0 # cp
    146      1   1 -0.100000    34.930200000    20.240100000    13.129500000   0   0   0 # cp
    147      1   1 -0.100000    33.839800000    20.750900000    12.464800000   0   0   0 # cp
    148      1   1  0.000000    33.046200000    21.756800000    13.037900000   0   0   0 # cp
    149      1   1 -0.100000    33.486200000    22.318800000    14.214400000   0   0   0 # cp
    150      1   1 -0.100000    34.614300000    21.852500000    14.857200000   0   0   0 # cp
    151      1   2  0.100000    35.484400000    19.464600000    12.689200000   0   0   0 # h
    152      1   2  0.100000    33.604300000    20.358700000    11.460200000   0   0   0 # h
    153      1   2  0.100000    32.943700000    23.133300000    14.658300000   0   0   0 # h
    154      1   2  0.100000    34.965100000    22.362000000    15.756000000   0   0   0 # h
    155      1   1 -0.100000    30.194100000    22.462000000    14.353200000   0   0   0 # cp
    156      1   1  0.000000    30.550600000    22.969400000    13.115800000   0   0   0 # cp
    157      1   1 -0.100000    29.786800000    23.985000000    12.588300000   0   0   0 # cp
    158      1   1 -0.100000    28.808600000    24.562300000    13.322700000   0   0   0 # cp
    159      1   1  0.000000    28.579400000    24.166700000    14.614900000   0   0   0 # cp
    160      1   1 -0.100000    29.210000000    23.058000000    15.121400000   0   0   0 # cp
    161      1   3  0.000000    31.763900000    22.296000000    12.261600000   0   0   0 # c
    162      1   1  0.000000    30.908800000    21.214400000    11.451000000   0   0   0 # cp
    163      1   1 -0.100000    30.109500000    21.602800000    10.400400000   0   0   0 # cp
    164      1   1 -0.100000    29.191100000    20.740300000     9.853220000   0   0   0 # cp
    165      1   1  0.000000    28.976800000    19.520500000    10.437200000   0   0   0 # cp
    166      1   1 -0.100000    29.750200000    19.094700000    11.491400000   0   0   0 # cp
    167      1   1 -0.100000    30.717600000    19.931600000    11.980600000   0   0   0 # cp
    168      1   1 -0.100000    32.917700000    24.581500000    12.006300000   0   0   0 # cp
    169      1   1 -0.100000    33.542100000    25.557800000    11.290100000   0   0   0 # cp
    170      1   1  0.000000    33.703900000    25.461600000     9.947490000   0   0   0 # cp
    171      1   1 -0.100000    33.341300000    24.259400000     9.333870000   0   0   0 # cp
    172      1   1 -0.100000    32.860800000    23.224100000    10.062600000   0   0   0 # cp
    173      1   1  0.000000    32.518700000    23.397800000    11.391500000   0   0   0 # cp
    174      1   3  0.000000    34.091900000    26.752000000     9.120220000   0   0   0 # c
    175      1   1  0.000000    29.958500000    28.271900000     9.167200000   0   0   0 # cp
    176      1   1 -0.100000    30.834900000    28.588000000    10.188200000   0   0   0 # cp
    177      1   1 -0.100000    32.145100000    28.210700000    10.138000000   0   0   0 # cp
    178      1   1  0.000000    32.636700000    27.470800000     9.079900000   0   0   0 # cp
    179      1   1 -0.100000    31.776600000    27.156600000     8.041420000   0   0   0 # cp
    180      1   1 -0.100000    30.455200000    27.577600000     8.075950000   0   0   0 # cp
    181      1   1  0.000000    34.822900000    26.438600000     7.731710000   0   0   0 # cp
    182      1   1 -0.100000    35.772500000    25.414900000     7.636120000   0   0   0 # cp
    183      1   1 -0.100000    36.330400000    25.090300000     6.435420000   0   0   0 # cp
    184      1   1  0.000000    36.057500000    25.816600000     5.308920000   0   0   0 # cp
    185      1   1 -0.100000    35.206400000    26.886800000     5.412630000   0   0   0 # cp
    186      1   1 -0.100000    34.608500000    27.191900000     6.588290000   0   0   0 # cp
    187      1   1 -0.100000    35.174400000    29.079700000     9.463190000   0   0   0 # cp
    188      1   1 -0.100000    36.145600000    29.932300000     9.877510000   0   0   0 # cp
    189      1   1  0.000000    37.227000000    29.450000000    10.561700000   0   0   0 # cp
    190      1   1 -0.100000    37.283400000    28.107800000    10.870200000   0   0   0 # cp
    191      1   1 -0.100000    36.316100000    27.227000000    10.442200000   0   0   0 # cp
    192      1   1  0.000000    35.220600000    27.718300000     9.738000000   0   0   0 # cp
    193      1   2  0.100000    30.757900000    21.665100000    14.803700000   0   0   0 # h
    194      1   2  0.100000    29.960200000    24.392900000    11.617900000   0   0   0 # h
    195      1   2  0.100000    28.262000000    25.364100000    12.907900000   0   0   0 # h
    196      1   2  0.100000    29.017900000    22.755900000    16.117300000   0   0   0 # h
    197      1   2  0.100000    30.140300000    22.599300000     9.992510000   0   0   0 # h
    198      1   2  0.100000    28.603000000    21.056300000     8.989260000   0   0   0 # h
    199      1   2  0.100000    29.528300000    18.119700000    11.941500000   0   0   0 # h
    200      1   2  0.100000    31.319000000    19.598800000    12.793400000   0   0   0 # h
    201      1   2  0.100000    32.677300000    24.727600000    13.050000000   0   0   0 # h
    202      1   2  0.100000    33.767300000    26.495100000    11.759900000   0   0   0 # h
    203      1   2  0.100000    33.389500000    24.101500000     8.263620000   0   0   0 # h
    204      1   2  0.100000    32.577200000    22.324900000     9.527970000   0   0   0 # h
    205      1   2  0.100000    30.495400000    29.098700000    11.083400000   0   0   0 # h
    206      1   2  0.100000    32.722200000    28.406400000    11.022600000   0   0   0 # h
    207      1   2  0.100000    32.049400000    26.529000000     7.180920000   0   0   0 # h
    208      1   2  0.100000    29.813500000    27.349600000     7.227040000   0   0   0 # h
    209      1   2  0.100000    36.095600000    24.861200000     8.516480000   0   0   0 # h
    210      1   2  0.100000    37.047200000    24.247100000     6.338020000   0   0   0 # h
    211      1   2  0.100000    35.013400000    27.554000000     4.547320000   0   0   0 # h
    212      1   2  0.100000    33.936800000    27.990700000     6.559950000   0   0   0 # h
    213      1   2  0.100000    34.425200000    29.487600000     8.774990000   0   0   0 # h
    214      1   2  0.100000    36.170900000    30.978400000     9.597450000   0   0   0 # h
    215      1   2  0.100000    38.135000000    27.746200000    11.428500000   0   0   0 # h
    216      1   2  0.100000    36.386700000    26.172600000    10.683100000   0   0   0 # h
    217      1   1  0.000000    35.347000000    27.449400000    44.314100000   0   0   0 # cp
    218      1   1 -0.100000    33.987200000    27.612800000    44.169700000   0   0   0 # cp
    219      1   1 -0.100000    33.162100000    26.523900000    44.104500000   0   0   0 # cp
    220      1   1  0.000000    33.709700000    25.226400000    44.211100000   0   0   0 # cp
    221      1   1 -0.100000    35.066400000    25.097600000    44.376500000   0   0   0 # cp
    222      1   1 -0.100000    35.884200000    26.188500000    44.392000000   0   0   0 # cp
    223      1   2  0.100000    33.554200000    28.590500000    44.157600000   0   0   0 # h
    224      1   2  0.100000    32.097100000    26.716300000    44.037300000   0   0   0 # h
    225      1   2  0.100000    35.506000000    24.106200000    44.555400000   0   0   0 # h
    226      1   2  0.100000    36.938200000    26.053800000    44.515600000   0   0   0 # h
    227      1   1 -0.100000    34.169000000    22.854500000    42.386000000   0   0   0 # cp
    228      1   1  0.000000    33.472000000    22.646100000    43.584800000   0   0   0 # cp
    229      1   1 -0.100000    33.438400000    21.350600000    44.059900000   0   0   0 # cp
    230      1   1 -0.100000    34.136100000    20.332300000    43.429500000   0   0   0 # cp
    231      1   1  0.000000    34.963700000    20.632900000    42.368700000   0   0   0 # cp
    232      1   1 -0.100000    34.937600000    21.888700000    41.818200000   0   0   0 # cp
    233      1   3  0.000000    32.823800000    23.917700000    44.252500000   0   0   0 # c
    234      1   1  0.000000    31.533200000    23.984200000    43.300300000   0   0   0 # cp
    235      1   1 -0.100000    30.422500000    23.266100000    43.685300000   0   0   0 # cp
    236      1   1 -0.100000    29.253600000    23.332700000    42.975900000   0   0   0 # cp
    237      1   1  0.000000    29.198900000    24.059900000    41.817200000   0   0   0 # cp
    238      1   1 -0.100000    30.325300000    24.692800000    41.378400000   0   0   0 # cp
    239      1   1 -0.100000    31.481500000    24.634200000    42.101400000   0   0   0 # cp
    240      1   1 -0.100000    33.433000000    23.376800000    46.732900000   0   0   0 # cp
    241      1   1 -0.100000    33.287100000    23.525000000    48.115400000   0   0   0 # cp
    242      1   1  0.000000    32.158800000    24.184300000    48.662700000   0   0   0 # cp
    243      1   1 -0.100000    31.233200000    24.635400000    47.737700000   0   0   0 # cp
    244      1   1 -0.100000    31.429500000    24.552700000    46.381700000   0   0   0 # cp
    245      1   1  0.000000    32.529600000    23.897900000    45.841500000   0   0   0 # cp
    246      1   3  0.000000    31.857300000    24.208600000    50.224700000   0   0   0 # c
    247      1   1  0.000000    29.992214002    20.298320089     0.222030568   0   0   0 # cp
    248      1   1 -0.100000    31.323014002    20.609520089     0.499530568   0   0   0 # cp
    249      1   1 -0.100000    31.744414002    21.916420089     0.388130568   0   0   0 # cp
    250      1   1  0.000000    31.395099829    22.679300086    50.373684092   0   0  -1 # cp
    251      1   1 -0.100000    30.101700000    22.321200000    50.055000000   0   0   0 # cp
    252      1   1 -0.100000    29.669700000    21.036700000    50.156600000   0   0   0 # cp
    253      1   1  0.000000    30.235114002    25.532720089     0.399130568   0   0   0 # cp
    254      1   1 -0.100000    30.742200000    26.544400000    50.163000000   0   0   0 # cp
    255      1   1 -0.100000    29.785099829    27.458900086    50.509984092   0   0  -1 # cp
    256      1   1  0.000000    28.270014002    27.389120089     1.104830568   0   0   0 # cp
    257      1   1 -0.100000    28.347514002    26.188320089     1.747630568   0   0   0 # cp
    258      1   1 -0.100000    29.314614002    25.277320089     1.410430568   0   0   0 # cp
    259      1   1 -0.100000    32.862614002    24.467220089     2.006730568   0   0   0 # cp
    260      1   1 -0.100000    34.048400000    24.731400000     2.604560000   0   0   0 # cp
    261      1   1  0.000000    34.916614002    25.635520089     2.024130568   0   0   0 # cp
    262      1   1 -0.100000    34.594614002    26.232020089     0.826330568   0   0   0 # cp
    263      1   1 -0.100000    33.971199829    25.642500086    50.529284092   0   0  -1 # cp
    264      1   1  0.000000    32.572714002    24.946620089     0.771930568   0   0   0 # cp
    265      1   2  0.100000    34.174400000    23.788900000    41.882800000   0   0   0 # h
    266      1   2  0.100000    32.883500000    21.100200000    44.957500000   0   0   0 # h
    267      1   2  0.100000    34.053400000    19.321700000    43.793900000   0   0   0 # h
    268      1   2  0.100000    35.467700000    22.082300000    40.902800000   0   0   0 # h
    269      1   2  0.100000    30.396600000    22.660500000    44.597900000   0   0   0 # h
    270      1   2  0.100000    28.393300000    22.801400000    43.281700000   0   0   0 # h
    271      1   2  0.100000    30.345800000    25.323400000    40.494600000   0   0   0 # h
    272      1   2  0.100000    32.330900000    25.151600000    41.753200000   0   0   0 # h
    273      1   2  0.100000    34.350500000    22.930100000    46.382900000   0   0   0 # h
    274      1   2  0.100000    34.033400000    23.160000000    48.781500000   0   0   0 # h
    275      1   2  0.100000    30.288900000    25.030200000    48.080600000   0   0   0 # h
    276      1   2  0.100000    30.663200000    24.969700000    45.773400000   0   0   0 # h
    277      1   2  0.100000    32.013614002    19.819920089     0.755130568   0   0   0 # h
    278      1   2  0.100000    32.787914002    22.084620089     0.550530568   0   0   0 # h
    279      1   2  0.100000    29.337500000    23.036100000    49.713900000   0   0   0 # h
    280      1   2  0.100000    28.647300000    20.850000000    49.915000000   0   0   0 # h
    281      1   2  0.100000    31.431400000    26.790600000    49.377800000   0   0   0 # h
    282      1   2  0.100000    29.736500000    28.403200000    49.967800000   0   0   0 # h
    283      1   2  0.100000    27.560700000    25.966100000     2.503940000   0   0   0 # h
    284      1   2  0.100000    29.315814002    24.337120089     1.955730568   0   0   0 # h
    285      1   2  0.100000    32.221714002    23.784320089     2.539330568   0   0   0 # h
    286      1   2  0.100000    34.267900000    24.302700000     3.613570000   0   0   0 # h
    287      1   2  0.100000    35.218314002    27.039820089     0.449830568   0   0   0 # h
    288      1   2  0.100000    33.742200000    26.104200000    49.603800000   0   0   0 # h
    289      1   1  0.000000    21.486700000    10.866800000    15.404500000   0   0   0 # cp
    290      1   1 -0.100000    20.957700000    11.236700000    14.185500000   0   0   0 # cp
    291      1   1 -0.100000    21.475000000    12.314000000    13.501200000   0   0   0 # cp
    292      1   1  0.000000    22.516600000    13.064100000    14.003100000   0   0   0 # cp
    293      1   1 -0.100000    23.130100000    12.601700000    15.153100000   0   0   0 # cp
    294      1   1 -0.100000    22.581300000    11.554000000    15.870900000   0   0   0 # cp
    295      1   2  0.100000    20.170500000    10.687300000    13.736400000   0   0   0 # h
    296      1   2  0.100000    20.990000000    12.527300000    12.566800000   0   0   0 # h
    297      1   2  0.100000    24.015000000    13.113000000    15.523000000   0   0   0 # h
    298      1   2  0.100000    23.056000000    11.280200000    16.805900000   0   0   0 # h
    299      1   1 -0.100000    23.237000000    15.763600000    15.394500000   0   0   0 # cp