LAMMPS data file. msi2lmp v3.9.11 / 6 Sep 2024 / CGCMM for wkf_2_opt

   4320 atoms
   4752 bonds
   8352 angles
  13392 dihedrals
   2016 impropers

   4 atom types
   6 bond types
   9 angle types
  13 dihedral types
   3 improper types

   -14.124188624    41.864511376 xlo xhi
    -0.147162334    48.472619189 ylo yhi
    -0.211753841    65.160485329 zlo zhi
   -27.946662573    -0.679809229    -0.058575123 xy xz yz

Masses

   1  12.011150 # cp
   2   1.007970 # h
   3  12.011150 # c
   4  12.011150 # c2

Pair Coeffs # lj/cut/coul/long

   1   0.1479999981   3.6170487995 # cp
   2   0.0380000011   2.4499714540 # h
   3   0.1599999990   3.4745050026 # c
   4   0.0389999952   3.8754094636 # c2

Bond Coeffs # harmonic

   1   480.0000     1.3400 # cp-cp
   2   283.0924     1.5100 # cp-c2
   3   363.4164     1.0800 # cp-h
   4   283.0924     1.5100 # cp-c
   5   322.7158     1.5260 # c2-c2
   6   340.6175     1.1050 # h-c2

Angle Coeffs # harmonic

   1    90.0000   120.0000 # cp-cp-cp
   2    44.2000   120.0000 # cp-cp-c2
   3    37.0000   120.0000 # cp-cp-h
   4    44.2000   120.0000 # cp-cp-c
   5    46.6000   110.5000 # cp-c-cp
   6    46.6000   110.5000 # cp-c2-c2
   7    44.4000   110.0000 # cp-c2-h
   8    44.4000   110.0000 # h-c2-c2
   9    39.5000   106.4000 # h-c2-h

Dihedral Coeffs # harmonic

  1     3.0000  -1   2 # cp-cp-cp-cp
  2     3.0000  -1   2 # cp-cp-cp-h
  3     3.0000  -1   2 # cp-cp-cp-c2
  4     3.0000  -1   2 # h-cp-cp-c2
  5     0.0000   1   2 # cp-cp-c2-c2
  6     0.0000   1   2 # cp-cp-c2-h
  7     3.0000  -1   2 # h-cp-cp-h
  8     3.0000  -1   2 # cp-cp-cp-c
  9     3.0000  -1   2 # h-cp-cp-c
 10     0.6750   1   4 # cp-cp-c-cp
 11     0.1581   1   3 # cp-c2-c2-cp
 12     0.1581   1   3 # cp-c2-c2-h
 13     0.1581   1   3 # h-c2-c2-h

Improper Coeffs # cvff

    1     0.3700  -1   2 # cp-cp-cp-c2
    2     0.3700  -1   2 # cp-cp-cp-h
    3     0.3700  -1   2 # cp-cp-cp-c

Atoms # full

      1      1   1  0.000000    -5.158460000    11.179300000     0.808885000   0   0   0 # cp
      2      1   1 -0.100000    -4.276780000    10.722200000     1.786580000   0   0   0 # cp
      3      1   1 -0.100000    -3.609250000     9.531340000     1.573590000   0   0   0 # cp
      4      1   1  0.000000    -3.720031117     8.828905093     0.382194121   0   0   0 # cp
      5      1   1 -0.100000    -5.209420000     9.300190000    64.755300000   0   0   0 # cp
      6      1   1 -0.100000    -5.951030000    10.439000000    64.990500000   0   0   0 # cp
      7      1   2  0.100000    -4.038000000    11.244800000     2.693980000   0   0   0 # h
      8      1   2  0.100000    -2.865180000     9.209070000     2.325580000   0   0   0 # h
      9      1   2  0.100000    -5.284120000     8.801540000    63.808800000   0   0   0 # h
     10      1   2  0.100000    -6.631160000    10.782600000    64.242600000   0   0   0 # h
     11      1   1 -0.100000    22.638227611     6.112810000    64.507800000   0   0   0 # cp
     12      1   1  0.000000    -4.027120000     6.500330000    64.411200000   0   0   0 # cp
     13      1   1 -0.100000    -3.266530000     5.949080000    63.389900000   0   0   0 # cp
     14      1   1 -0.100000    24.201277611     5.057520000    62.495500000   0   0   0 # cp
     15      1   1  0.000000    22.850647611     4.776360000    62.541200000   0   0   0 # cp
     16      1   1 -0.100000    22.077217611     5.322160000    63.540300000   0   0   0 # cp
     17      1   3  0.000000    -2.736711117     7.660695093     0.038694121   0   0   0 # c
     18      1   1  0.000000    -2.399760000     6.638940000     1.201270000   0   0   0 # cp
     19      1   1 -0.100000    -1.251650000     5.853450000     1.124580000   0   0   0 # cp
     20      1   1 -0.100000    -0.939097000     4.951740000     2.107740000   0   0   0 # cp
     21      1   1  0.000000    -1.763810000     4.834220000     3.204420000   0   0   0 # cp
     22      1   1 -0.100000    -2.951760000     5.535840000     3.266710000   0   0   0 # cp
     23      1   1 -0.100000    -3.290970000     6.384540000     2.238910000   0   0   0 # cp
     24      1   1 -0.100000    -2.195220000     9.000030000    63.562300000   0   0   0 # cp
     25      1   1 -0.100000    -1.104160000     9.695660000    63.059400000   0   0   0 # cp
     26      1   1  0.000000     0.065556900     9.836890000    63.770400000   0   0   0 # cp
     27      1   1 -0.100000     0.097008800     9.342460000    65.072400000   0   0   0 # cp
     28      1   1 -0.100000    -0.336471117     8.774535093     0.229194121   0   0   0 # cp
     29      1   1  0.000000    -2.154990000     8.452210000    64.824700000   0   0   0 # cp
     30      1   3  0.000000     1.368080000    10.432600000    63.049100000   0   0   0 # c
     31      1   1  0.000000     2.318710000     6.889740000    60.610900000   0   0   0 # cp
     32      1   1 -0.100000     1.597750000     7.940540000    60.085600000   0   0   0 # cp
     33      1   1 -0.100000     1.244820000     9.029770000    60.835700000   0   0   0 # cp
     34      1   1  0.000000     1.693330000     9.143500000    62.132700000   0   0   0 # cp
     35      1   1 -0.100000     2.327000000     8.042430000    62.701100000   0   0   0 # cp
     36      1   1 -0.100000     2.660190000     6.941590000    61.928400000   0   0   0 # cp
     37      1   1  0.000000     2.590440000    10.862400000    63.972600000   0   0   0 # cp
     38      1   1 -0.100000     2.420320000    11.541200000    65.157900000   0   0   0 # cp
     39      1   1 -0.100000     4.130370000    12.065800000     0.549142000   0   0   0 # cp
     40      1   1  0.000000     5.395518883    11.873075093     0.115894121   0   0   0 # cp
     41      1   1 -0.100000     4.956070000    11.224100000    64.269700000   0   0   0 # cp
     42      1   1 -0.100000     3.905600000    10.744100000    63.512700000   0   0   0 # cp
     43      1   1 -0.100000     1.877010000    12.358800000    61.306200000   0   0   0 # cp
     44      1   1 -0.100000     1.798340000    13.670500000    60.896000000   0   0   0 # cp
     45      1   1  0.000000     0.861974000    14.518500000    61.414600000   0   0   0 # cp
     46      1   1 -0.100000     0.033447900    14.038300000    62.399900000   0   0   0 # cp
     47      1   1 -0.100000     0.173880000    12.755700000    62.903700000   0   0   0 # cp
     48      1   1  0.000000     1.085840000    11.881600000    62.357800000   0   0   0 # cp
     49      1   2  0.100000    22.672546840     6.563185123    -0.053439169   0   0   1 # h
     50      1   2  0.100000    -2.236490000     6.266250000    63.230200000   0   0   0 # h
     51      1   2  0.100000    -3.153830000     4.650010000    61.765100000   0   0   0 # h
     52      1   2  0.100000    21.016467611     5.060510000    63.593100000   0   0   0 # h
     53      1   2  0.100000    -0.579521117     5.904425093     0.271394121   0   0   0 # h
     54      1   2  0.100000    -0.049665100     4.389530000     2.033670000   0   0   0 # h
     55      1   2  0.100000    24.339757611     5.400780000     4.082680000   0   0   0 # h
     56      1   2  0.100000    23.757527611     6.880600000     2.318020000   0   0   0 # h
     57      1   2  0.100000    -3.057780000     8.871730000    62.935600000   0   0   0 # h
     58      1   2  0.100000    -1.144270000    10.072600000    62.054000000   0   0   0 # h
     59      1   2  0.100000     1.650864883     9.439825093     0.329694121   0   0   0 # h
     60      1   2  0.100000    -0.263991000     8.377180000     1.226530000   0   0   0 # h
     61      1   2  0.100000     1.336920000     7.949720000    59.048400000   0   0   0 # h
     62      1   2  0.100000     0.696919000     9.849630000    60.363800000   0   0   0 # h
     63      1   2  0.100000     2.641870000     8.044230000    63.737900000   0   0   0 # h
     64      1   2  0.100000     3.192250000     6.100530000    62.333000000   0   0   0 # h
     65      1   2  0.100000     2.095858883    11.779175093     0.123594121   0   0   0 # h
     66      1   2  0.100000     3.879320000    12.565500000     1.477210000   0   0   0 # h
     67      1   2  0.100000     5.957360000    11.199900000    63.853300000   0   0   0 # h
     68      1   2  0.100000     4.121160000    10.358600000    62.551700000   0   0   0 # h
     69      1   2  0.100000     2.661890000    11.764300000    60.870900000   0   0   0 # h
     70      1   2  0.100000     2.415030000    13.999100000    60.080000000   0   0   0 # h
     71      1   2  0.100000    -0.668355000    14.738900000    62.870300000   0   0   0 # h
     72      1   2  0.100000    -0.533361000    12.427900000    63.654500000   0   0   0 # h
     73      1   1  0.000000    16.309200000     0.089954400    55.359300000   0   0   0 # cp
     74      1   1 -0.100000     3.235400000    23.657900000    54.605500000   0   0   0 # cp
     75      1   1 -0.100000     4.517750000    23.480700000    55.002900000   0   0   0 # cp
     76      1   1  0.000000     4.987374345    24.066800964    56.156100000   0   0   0 # cp
     77      1   1 -0.100000    18.006200000     0.325926000    57.015600000   0   0   0 # cp
     78      1   1 -0.100000    16.724900000     0.544780000    56.581900000   0   0   0 # cp
     79      1   2  0.100000     2.957220000    23.332300000    53.618300000   0   0   0 # h
     80      1   2  0.100000     5.206950000    23.017700000    54.304600000   0   0   0 # h
     81      1   2  0.100000    18.311800000     0.696040000    57.990400000   0   0   0 # h
     82      1   2  0.100000    16.074800000     1.104750000    57.224800000   0   0   0 # h
     83      1   1 -0.100000    20.505267611     2.183640000    57.297200000   0   0   0 # cp
     84      1   1  0.000000    20.965787611     0.898496000    57.508900000   0   0   0 # cp
     85      1   1 -0.100000    21.948527611     0.709292000    58.479300000   0   0   0 # cp
     86      1   1 -0.100000    22.444657611     1.768930000    59.179100000   0   0   0 # cp
     87      1   1  0.000000    21.871387611     3.021630000    59.067300000   0   0   0 # cp
     88      1   1 -0.100000    20.885017611     3.222750000    58.107300000   0   0   0 # cp
     89      1   3  0.000000     6.529074345    24.021261964    56.555600000   0   0   0 # c
     90      1   1  0.000000     7.561061956    24.248801064    55.341000000   0   0   0 # cp
     91      1   1 -0.100000     8.834727611    23.764200000    55.404000000   0   0   0 # cp
     92      1   1 -0.100000     9.723031956    23.900050964    54.376300000   0   0   0 # cp
     93      1   1  0.000000    23.344587611     0.260686000    53.225900000   0   0   0 # cp
     94      1   1 -0.100000    22.061237611     0.775736000    53.119100000   0   0   0 # cp
     95      1   1 -0.100000    21.201677611     0.640575000    54.178300000   0   0   0 # cp
     96      1   1 -0.100000     6.062060000    22.399300000    58.464400000   0   0   0 # cp
     97      1   1 -0.100000     5.980040000    21.180300000    59.057100000   0   0   0 # cp
     98      1   1  0.000000     6.470400000    20.076200000    58.425500000   0   0   0 # cp
     99      1   1 -0.100000     7.098490000    20.232100000    57.212600000   0   0   0 # cp
    100      1   1 -0.100000     7.058450000    21.434100000    56.562000000   0   0   0 # cp
    101      1   1  0.000000     6.587280000    22.566500000    57.218500000   0   0   0 # cp
    102      1   3  0.000000     6.432170000    18.668400000    59.154600000   0   0   0 # c
    103      1   1  0.000000    10.002800000    19.043300000    61.626500000   0   0   0 # cp
    104      1   1 -0.100000     8.800430000    19.308800000    62.210100000   0   0   0 # cp
    105      1   1 -0.100000     7.649600000    19.264400000    61.451200000   0   0   0 # cp
    106      1   1  0.000000     7.708330000    18.823300000    60.115400000   0   0   0 # cp
    107      1   1 -0.100000     8.944520000    18.563200000    59.548500000   0   0   0 # cp
    108      1   1 -0.100000    10.076200000    18.728700000    60.309500000   0   0   0 # cp
    109      1   1  0.000000     6.427320000    17.402600000    58.168600000   0   0   0 # cp
    110      1   1 -0.100000     5.764490000    17.341400000    56.944800000   0   0   0 # cp
    111      1   1 -0.100000     5.706740000    16.160800000    56.255100000   0   0   0 # cp
    112      1   1  0.000000     6.160470000    14.992000000    56.820000000   0   0   0 # cp
    113      1   1 -0.100000     6.783400000    15.009800000    58.032100000   0   0   0 # cp
    114      1   1 -0.100000     6.938950000    16.209400000    58.663400000   0   0   0 # cp
    115      1   1 -0.100000     5.016940000    17.536400000    61.005100000   0   0   0 # cp
    116      1   1 -0.100000     3.805190000    17.118700000    61.514100000   0   0   0 # cp
    117      1   1  0.000000     2.633810000    17.463800000    60.879700000   0   0   0 # cp
    118      1   1 -0.100000     2.687990000    18.223500000    59.725200000   0   0   0 # cp
    119      1   1 -0.100000     3.882360000    18.731700000    59.288200000   0   0   0 # cp
    120      1   1  0.000000     5.076100000    18.368600000    59.895700000   0   0   0 # cp
    121      1   2  0.100000    19.804700000     2.406990000    56.486900000   0   0   0 # h
    122      1   2  0.100000     8.460881956    24.055150964    58.612200000   0   0   0 # h
    123      1   2  0.100000    23.218327611     1.554710000    59.941500000   0   0   0 # h
    124      1   2  0.100000    20.485237611     4.227180000    57.955200000   0   0   0 # h
    125      1   2  0.100000     9.173827611    23.261700000    56.304800000   0   0   0 # h
    126      1   2  0.100000    10.725927611    23.487900000    54.472900000   0   0   0 # h
    127      1   2  0.100000    21.728757611     1.326070000    52.234700000   0   0   0 # h
    128      1   2  0.100000    20.228900000     1.056430000    54.036700000   0   0   0 # h
    129      1   2  0.100000     5.725430000    23.241300000    59.056000000   0   0   0 # h
    130      1   2  0.100000     5.572520000    21.170600000    60.073000000   0   0   0 # h
    131      1   2  0.100000     7.599230000    19.382700000    56.765300000   0   0   0 # h
    132      1   2  0.100000     7.476390000    21.459200000    55.546600000   0   0   0 # h
    133      1   2  0.100000     8.717550000    19.566800000    63.259000000   0   0   0 # h
    134      1   2  0.100000     6.713180000    19.552900000    61.929100000   0   0   0 # h
    135      1   2  0.100000     9.058720000    18.216700000    58.537000000   0   0   0 # h
    136      1   2  0.100000    11.050027611    18.518700000    59.856600000   0   0   0 # h
    137      1   2  0.100000     5.256090000    18.212300000    56.520000000   0   0   0 # h
    138      1   2  0.100000     5.308310000    16.157700000    55.262400000   0   0   0 # h
    139      1   2  0.100000     7.170260000    14.133900000    58.539600000   0   0   0 # h
    140      1   2  0.100000     7.407520000    16.200100000    59.654500000   0   0   0 # h
    141      1   2  0.100000     5.935290000    17.176800000    61.491800000   0   0   0 # h
    142      1   2  0.100000     3.804400000    16.505500000    62.389900000   0   0   0 # h
    143      1   2  0.100000     1.787860000    18.499300000    59.188600000   0   0   0 # h
    144      1   2  0.100000     3.884560000    19.330200000    58.407600000   0   0   0 # h
    145      1   1  0.000000    10.886800000    11.031900000    22.792900000   0   0   0 # cp
    146      1   1 -0.100000    10.580500000    12.139000000    23.542800000   0   0   0 # cp
    147      1   1 -0.100000    10.993400000    13.373800000    23.120700000   0   0   0 # cp
    148      1   1  0.000000    11.743900000    13.532200000    21.965700000   0   0   0 # cp
    149      1   1 -0.100000    11.950300000    12.411800000    21.170100000   0   0   0 # cp
    150      1   1 -0.100000    11.542200000    11.172000000    21.587800000   0   0   0 # cp
    151      1   2  0.100000    10.122700000    12.032100000    24.517800000   0   0   0 # h
    152      1   2  0.100000    10.721300000    14.220300000    23.742900000   0   0   0 # h
    153      1   2  0.100000    12.480500000    12.441500000    20.227100000   0   0   0 # h
    154      1   2  0.100000    11.796900000    10.302400000    20.971000000   0   0   0 # h
    155      1   1 -0.100000    14.305727611    14.437900000    20.319000000   0   0   0 # cp
    156      1   1  0.000000    13.151927611    15.207700000    20.330100000   0   0   0 # cp
    157      1   1 -0.100000    13.032927611    16.175800000    19.329700000   0   0   0 # cp
    158      1   1 -0.100000    13.950127611    16.238000000    18.314000000   0   0   0 # cp
    159      1   1  0.000000    15.048527611    15.427400000    18.313100000   0   0   0 # cp
    160      1   1 -0.100000    15.265027611    14.578200000    19.354300000   0   0   0 # cp
    161      1   3  0.000000    12.153600000    15.040500000    21.545000000   0   0   0 # c
    162      1   1  0.000000    12.974627611    15.789700000    22.692900000   0   0   0 # cp
    163      1   1 -0.100000    13.073727611    17.189200000    22.781500000   0   0   0 # cp
    164      1   1 -0.100000    13.757827611    17.801600000    23.803800000   0   0   0 # cp
    165      1   1  0.000000    14.470227611    17.032200000    24.697400000   0   0   0 # cp
    166      1   1 -0.100000    14.412927611    15.659900000    24.606800000   0   0   0 # cp
    167      1   1 -0.100000    13.688227611    15.044800000    23.642400000   0   0   0 # cp
    168      1   1 -0.100000    10.006400000    15.459500000    20.113500000   0   0   0 # cp
    169      1   1 -0.100000     8.706830000    15.837100000    19.973600000   0   0   0 # cp
    170      1   1  0.000000     8.109230000    16.637200000    20.934300000   0   0   0 # cp
    171      1   1 -0.100000     8.793980000    16.917400000    22.103900000   0   0   0 # cp
    172      1   1 -0.100000    10.041100000    16.391400000    22.293600000   0   0   0 # cp
    173      1   1  0.000000    10.706700000    15.689900000    21.284400000   0   0   0 # cp
    174      1   3  0.000000     6.701860000    17.309200000    20.634900000   0   0   0 # c
    175      1   1  0.000000     7.906600000    20.401700000    17.762700000   0   0   0 # cp
    176      1   1 -0.100000     7.477560000    19.165300000    17.340000000   0   0   0 # cp
    177      1   1 -0.100000     7.162900000    18.163400000    18.215800000   0   0   0 # cp
    178      1   1  0.000000     7.201410000    18.397000000    19.578500000   0   0   0 # cp
    179      1   1 -0.100000     7.699360000    19.614200000    19.990300000   0   0   0 # cp
    180      1   1 -0.100000     8.034250000    20.616300000    19.093800000   0   0   0 # cp
    181      1   1  0.000000     5.868140000    17.906300000    21.857400000   0   0   0 # cp
    182      1   1 -0.100000     5.752190000    17.242400000    23.078900000   0   0   0 # cp
    183      1   1 -0.100000     4.900470000    17.740800000    24.052900000   0   0   0 # cp
    184      1   1  0.000000     4.195390000    18.904700000    23.854700000   0   0   0 # cp
    185      1   1 -0.100000     4.311510000    19.529900000    22.632700000   0   0   0 # cp
    186      1   1 -0.100000     5.089930000    19.021300000    21.661800000   0   0   0 # cp
    187      1   1 -0.100000     4.592490000    16.603900000    19.237200000   0   0   0 # cp
    188      1   1 -0.100000     3.663370000    15.694400000    18.814700000   0   0   0 # cp
    189      1   1  0.000000     3.619480000    14.432800000    19.360600000   0   0   0 # cp
    190      1   1 -0.100000     4.617420000    14.042200000    20.208300000   0   0   0 # cp
    191      1   1 -0.100000     5.605320000    14.942000000    20.564200000   0   0   0 # cp
    192      1   1  0.000000     5.590920000    16.260400000    20.094900000   0   0   0 # cp
    193      1   2  0.100000    14.514627611    13.749600000    21.139600000   0   0   0 # h
    194      1   2  0.100000    12.232900000    16.891700000    19.340200000   0   0   0 # h
    195      1   2  0.100000    13.909927611    17.029100000    17.613300000   0   0   0 # h
    196      1   2  0.100000    16.164627611    14.000000000    19.456600000   0   0   0 # h
    197      1   2  0.100000    12.638527611    17.793600000    21.995500000   0   0   0 # h
    198      1   2  0.100000    13.838827611    18.885500000    23.828600000   0   0   0 # h
    199      1   2  0.100000    14.880627611    15.029500000    25.355900000   0   0   0 # h
    200      1   2  0.100000    13.725127611    13.955700000    23.647900000   0   0   0 # h
    201      1   2  0.100000    10.471400000    14.883000000    19.315600000   0   0   0 # h
    202      1   2  0.100000     8.217820000    15.615700000    19.056000000   0   0   0 # h
    203      1   2  0.100000     8.461900000    17.618900000    22.882000000   0   0   0 # h
    204      1   2  0.100000    10.484700000    16.592000000    23.224700000   0   0   0 # h
    205      1   2  0.100000     7.383760000    19.011900000    16.269500000   0   0   0 # h
    206      1   2  0.100000     6.839440000    17.231600000    17.808300000   0   0   0 # h
    207      1   2  0.100000     7.800360000    19.778300000    21.044200000   0   0   0 # h
    208      1   2  0.100000     8.473200000    21.563500000    19.424700000   0   0   0 # h
    209      1   2  0.100000     6.194540000    16.268700000    23.183900000   0   0   0 # h
    210      1   2  0.100000     4.748570000    17.177200000    24.970500000   0   0   0 # h
    211      1   2  0.100000     3.694120000    20.404200000    22.394600000   0   0   0 # h
    212      1   2  0.100000     5.020610000    19.549400000    20.690400000   0   0   0 # h
    213      1   2  0.100000     4.523280000    17.599400000    18.872300000   0   0   0 # h
    214      1   2  0.100000     2.943090000    16.041900000    18.107000000   0   0   0 # h
    215      1   2  0.100000     4.580190000    13.073500000    20.665800000   0   0   0 # h
    216      1   2  0.100000     6.347920000    14.606800000    21.284400000   0   0   0 # h
    217      1   1  0.000000    -4.861710000    10.964300000    12.857700000   0   0   0 # cp
    218      1   1 -0.100000    -4.379740000    11.972000000    12.040800000   0   0   0 # cp
    219      1   1 -0.100000    -4.841480000    13.258200000    12.204100000   0   0   0 # cp
    220      1   1  0.000000    -5.713800000    13.576000000    13.208100000   0   0   0 # cp
    221      1   1 -0.100000    -6.017680000    12.583200000    14.132200000   0   0   0 # cp
    222      1   1 -0.100000    -5.597750000    11.283400000    13.959400000   0   0   0 # cp
    223      1   2  0.100000    -3.764680000    11.706000000    11.189900000   0   0   0 # h
    224      1   2  0.100000    -4.511910000    14.010100000    11.514000000   0   0   0 # h
    225      1   2  0.100000    -6.628560000    12.826500000    15.004900000   0   0   0 # h
    226      1   2  0.100000    -5.955730000    10.475100000    14.569800000   0   0   0 # h
    227      1   1 -0.100000    19.184607611    14.001500000    13.802700000   0   0   0 # cp
    228      1   1  0.000000    -7.835700000    14.959900000    14.077600000   0   0   0 # cp
    229      1   1 -0.100000    -8.206050000    15.976700000    14.961300000   0   0   0 # cp
    230      1   1 -0.100000    18.551057611    16.018600000    15.559800000   0   0   0 # cp
    231      1   1  0.000000    17.609427611    15.047400000    15.275100000   0   0   0 # cp
    232      1   1 -0.100000    17.931527611    14.074100000    14.348800000   0   0   0 # cp
    233      1   3  0.000000    -6.393930000    15.018100000    13.342600000   0   0   0 # c
    234      1   1  0.000000    -6.843210000    15.759600000    12.035100000   0   0   0 # cp
    235      1   1 -0.100000    -7.070120000    17.128000000    11.952400000   0   0   0 # cp
    236      1   1 -0.100000    -7.629170000    17.722400000    10.861900000   0   0   0 # cp
    237      1   1  0.000000    -7.936520000    16.939900000     9.788630000   0   0   0 # cp
    238      1   1 -0.100000    -7.650010000    15.594800000     9.806980000   0   0   0 # cp
    239      1   1 -0.100000    -7.176810000    15.012600000    10.926500000   0   0   0 # cp
    240      1   1 -0.100000    -5.081170000    15.376100000    15.509200000   0   0   0 # cp
    241      1   1 -0.100000    -4.095730000    15.933100000    16.281400000   0   0   0 # cp
    242      1   1  0.000000    -3.221260000    16.850900000    15.754900000   0   0   0 # cp
    243      1   1 -0.100000    -3.420810000    17.225900000    14.422200000   0   0   0 # cp
    244      1   1 -0.100000    -4.377130000    16.637400000    13.635300000   0   0   0 # cp
    245      1   1  0.000000    -5.256530000    15.726900000    14.190500000   0   0   0 # cp
    246      1   3  0.000000    -2.062130000    17.514200000    16.691800000   0   0   0 # c
    247      1   1  0.000000    -4.745020000    20.096700000    19.024500000   0   0   0 # cp
    248      1   1 -0.100000    -4.273310000    18.948400000    19.614800000   0   0   0 # cp
    249      1   1 -0.100000    -3.421660000    18.140100000    18.907100000   0   0   0 # cp
    250      1   1  0.000000    -2.982540000    18.472200000    17.615400000   0   0   0 # cp
    251      1   1 -0.100000    -3.485880000    19.638100000    17.070200000   0   0   0 # cp
    252      1   1 -0.100000    -4.368280000    20.434000000    17.752700000   0   0   0 # cp
    253      1   1  0.000000    -0.854689000    18.178400000    15.895000000   0   0   0 # cp
    254      1   1 -0.100000    -0.291558000    17.509700000    14.809000000   0   0   0 # cp
    255      1   1 -0.100000     0.770137000    18.006000000    14.104100000   0   0   0 # cp
    256      1   1  0.000000     1.301130000    19.202800000    14.472100000   0   0   0 # cp
    257      1   1 -0.100000     0.752685000    19.894400000    15.539900000   0   0   0 # cp
    258      1   1 -0.100000    -0.266028000    19.378800000    16.264800000   0   0   0 # cp
    259      1   1 -0.100000    -1.125690000    15.136400000    17.143700000   0   0   0 # cp
    260      1   1 -0.100000    -0.421966000    14.230700000    17.864000000   0   0   0 # cp
    261      1   1  0.000000     0.286279000    14.649700000    18.951800000   0   0   0 # cp
    262      1   1 -0.100000     0.235339000    15.951300000    19.373400000   0   0   0 # cp
    263      1   1 -0.100000    -0.469188000    16.862500000    18.654600000   0   0   0 # cp
    264      1   1  0.000000    -1.190280000    16.472600000    17.519600000   0   0   0 # cp
    265      1   2  0.100000    19.344047611    13.212300000    13.078300000   0   0   0 # h
    266      1   2  0.100000    -7.500530000    16.756100000    15.200200000   0   0   0 # h
    267      1   2  0.100000    -9.666370000    16.810300000    16.272200000   0   0   0 # h
    268      1   2  0.100000    17.229927611    13.311600000    14.042700000   0   0   0 # h
    269      1   2  0.100000    -6.861220000    17.722800000    12.832000000   0   0   0 # h
    270      1   2  0.100000    -7.819130000    18.813600000    10.895400000   0   0   0 # h
    271      1   2  0.100000    -7.855730000    14.945700000     8.979730000   0   0   0 # h
    272      1   2  0.100000    -7.079470000    13.952100000    10.895400000   0   0   0 # h
    273      1   2  0.100000    -5.769620000    14.729200000    16.031000000   0   0   0 # h
    274      1   2  0.100000    -4.009490000    15.680100000    17.306000000   0   0   0 # h
    275      1   2  0.100000    -2.807960000    17.983700000    13.956800000   0   0   0 # h
    276      1   2  0.100000    -4.424740000    16.858700000    12.557800000   0   0   0 # h
    277      1   2  0.100000    -4.603560000    18.648200000    20.599700000   0   0   0 # h
    278      1   2  0.100000    -3.102880000    17.229100000    19.407800000   0   0   0 # h
    279      1   2  0.100000    -3.300480000    19.881500000    16.052000000   0   0   0 # h
    280      1   2  0.100000    -4.774540000    21.309200000    17.298500000   0   0   0 # h
    281      1   2  0.100000    -0.656213000    16.537600000    14.504400000   0   0   0 # h
    282      1   2  0.100000     1.262950000    17.393000000    13.354600000   0   0   0 # h
    283      1   2  0.100000     1.179560000    20.819800000    15.879300000   0   0   0 # h
    284      1   2  0.100000    -0.563389000    19.888200000    17.175100000   0   0   0 # h
    285      1   2  0.100000    -1.669720000    14.742800000    16.266900000   0   0   0 # h
    286      1   2  0.100000    -0.385257000    13.186000000    17.584500000   0   0   0 # h
    287      1   2  0.100000     0.859620000    16.265400000    20.189100000   0   0   0 # h
    288      1   2  0.100000    -0.473440000    17.885200000    18.986600000   0   0   0 # h
    289      1   1  0.000000     3.630020000    20.889100000    11.822000000   0   0   0 # cp
    290      1   1 -0.100000     4.725560000    20.161800000    11.395800000   0   0   0 # cp
    291      1   1 -0.100000     5.817790000    20.807400000    10.850500000   0   0   0 # cp
    292      1   1  0.000000     5.868610000    22.184500000    10.825600000   0   0   0 # cp
    293      1   1 -0.100000     4.745460000    22.894900000    11.243700000   0   0   0 # cp
    294      1   1 -0.100000     3.642500000    22.256600000    11.757100000   0   0   0 # cp
    295      1   2  0.100000     4.757740000    19.096400000    11.549500000   0   0   0 # h
    296      1   2  0.100000     6.670770000    20.190200000    10.529200000   0   0   0 # h
    297      1   2  0.100000     4.769674345    23.990699964    11.286900000   0   0   0 # h
    298      1   2  0.100000     2.760780000    22.831600000    12.040200000   0   0   0 # h
    299      1   1 -0.100000     7.199090000    21.866400000     8.116580000   0   0   0 # cp