LAMMPS data file. msi2lmp v3.9.11 / 6 Sep 2024 / CGCMM for wkm_0_opt

   4320 atoms
   4752 bonds
   8352 angles
  13392 dihedrals
   2016 impropers

   4 atom types
   6 bond types
   9 angle types
  13 dihedral types
   3 improper types

   -13.466767510    44.799132490 xlo xhi
     1.777308194    51.926541495 ylo yhi
     0.248802383    51.796008951 zlo zhi
   -29.605507853     0.769547334     0.160381476 xy xz yz

Masses

   1  12.011150 # cp
   2   1.007970 # h
   3  12.011150 # c
   4  12.011150 # c2

Pair Coeffs # lj/cut/coul/long

   1   0.1479999981   3.6170487995 # cp
   2   0.0380000011   2.4499714540 # h
   3   0.1599999990   3.4745050026 # c
   4   0.0389999952   3.8754094636 # c2

Bond Coeffs # harmonic

   1   480.0000     1.3400 # cp-cp
   2   283.0924     1.5100 # cp-c2
   3   363.4164     1.0800 # cp-h
   4   283.0924     1.5100 # cp-c
   5   322.7158     1.5260 # c2-c2
   6   340.6175     1.1050 # h-c2

Angle Coeffs # harmonic

   1    90.0000   120.0000 # cp-cp-cp
   2    44.2000   120.0000 # cp-cp-c2
   3    37.0000   120.0000 # cp-cp-h
   4    44.2000   120.0000 # cp-cp-c
   5    46.6000   110.5000 # cp-c-cp
   6    46.6000   110.5000 # cp-c2-c2
   7    44.4000   110.0000 # cp-c2-h
   8    44.4000   110.0000 # h-c2-c2
   9    39.5000   106.4000 # h-c2-h

Dihedral Coeffs # harmonic

  1     3.0000  -1   2 # cp-cp-cp-cp
  2     3.0000  -1   2 # cp-cp-cp-h
  3     3.0000  -1   2 # cp-cp-cp-c2
  4     3.0000  -1   2 # h-cp-cp-c2
  5     0.0000   1   2 # cp-cp-c2-c2
  6     0.0000   1   2 # cp-cp-c2-h
  7     3.0000  -1   2 # h-cp-cp-h
  8     3.0000  -1   2 # cp-cp-cp-c
  9     3.0000  -1   2 # h-cp-cp-c
 10     0.6750   1   4 # cp-cp-c-cp
 11     0.1581   1   3 # cp-c2-c2-cp
 12     0.1581   1   3 # cp-c2-c2-h
 13     0.1581   1   3 # h-c2-c2-h

Improper Coeffs # cvff

    1     0.3700  -1   2 # cp-cp-cp-c2
    2     0.3700  -1   2 # cp-cp-cp-h
    3     0.3700  -1   2 # cp-cp-cp-c

Atoms # full

      1      1   1  0.000000    24.068200000    12.140800000    15.661700000   0   0   0 # cp
      2      1   1 -0.100000    25.232600000    12.499400000    15.047600000   0   0   0 # cp
      3      1   1 -0.100000    25.965000000    11.596000000    14.306200000   0   0   0 # cp
      4      1   1  0.000000    25.543600000    10.289100000    14.186000000   0   0   0 # cp
      5      1   1 -0.100000    24.376600000     9.914550000    14.854100000   0   0   0 # cp
      6      1   1 -0.100000    23.620400000    10.823900000    15.551200000   0   0   0 # cp
      7      1   2  0.100000    25.582300000    13.553600000    15.134900000   0   0   0 # h
      8      1   2  0.100000    26.827200000    11.966200000    13.782400000   0   0   0 # h
      9      1   2  0.100000    23.990200000     8.928140000    14.782700000   0   0   0 # h
     10      1   2  0.100000    22.691600000    10.524400000    15.991700000   0   0   0 # h
     11      1   1 -0.100000    26.196200000     7.263310000    14.697300000   0   0   0 # cp
     12      1   1  0.000000    26.126000000     7.768960000    13.393100000   0   0   0 # cp
     13      1   1 -0.100000    25.996100000     6.860770000    12.371000000   0   0   0 # cp
     14      1   1 -0.100000    25.881500000     5.533850000    12.594700000   0   0   0 # cp
     15      1   1  0.000000    25.805900000     5.077240000    13.880900000   0   0   0 # cp
     16      1   1 -0.100000    26.004000000     5.934830000    14.938400000   0   0   0 # cp
     17      1   3  0.000000    26.232400000     9.345560000    13.124700000   0   0   0 # c
     18      1   1  0.000000    27.794700000     9.454920000    12.940100000   0   0   0 # cp
     19      1   1 -0.100000    28.373800000     9.079040000    11.742400000   0   0   0 # cp
     20      1   1 -0.100000    29.747300000     9.088230000    11.563200000   0   0   0 # cp
     21      1   1  0.000000    30.571300000     9.459820000    12.589700000   0   0   0 # cp
     22      1   1 -0.100000    30.031300000     9.876370000    13.770900000   0   0   0 # cp
     23      1   1 -0.100000    28.657400000     9.848000000    13.944700000   0   0   0 # cp
     24      1   1 -0.100000    24.129400000     9.292690000    11.665100000   0   0   0 # cp
     25      1   1 -0.100000    23.499600000     9.502140000    10.465100000   0   0   0 # cp
     26      1   1  0.000000    24.104200000    10.278800000     9.476090000   0   0   0 # cp
     27      1   1 -0.100000    25.260600000    10.947000000     9.813140000   0   0   0 # cp
     28      1   1 -0.100000    25.875500000    10.771800000    11.031800000   0   0   0 # cp
     29      1   1  0.000000    25.382100000     9.829330000    11.909000000   0   0   0 # cp
     30      1   3  0.000000    23.582500000    10.165700000     7.972400000   0   0   0 # c
     31      1   1  0.000000    24.326600000     5.822030000     7.728960000   0   0   0 # cp
     32      1   1 -0.100000    23.042600000     6.333200000     7.742080000   0   0   0 # cp
     33      1   1 -0.100000    22.809400000     7.665370000     7.802480000   0   0   0 # cp
     34      1   1  0.000000    23.861000000     8.596300000     7.753400000   0   0   0 # cp
     35      1   1 -0.100000    25.159300000     8.047840000     7.827280000   0   0   0 # cp
     36      1   1 -0.100000    25.372500000     6.679800000     7.772940000   0   0   0 # cp
     37      1   1  0.000000    24.347500000    11.169000000     6.956380000   0   0   0 # cp
     38      1   1 -0.100000    24.295600000    12.527200000     7.160880000   0   0   0 # cp
     39      1   1 -0.100000    25.033600000    13.405400000     6.448750000   0   0   0 # cp
     40      1   1  0.000000    25.803800000    12.932500000     5.410980000   0   0   0 # cp
     41      1   1 -0.100000    25.840000000    11.595500000     5.144870000   0   0   0 # cp
     42      1   1 -0.100000    25.152500000    10.705300000     5.942670000   0   0   0 # cp
     43      1   1 -0.100000    21.354500000    10.304300000     6.729530000   0   0   0 # cp
     44      1   1 -0.100000    20.011800000    10.493100000     6.658410000   0   0   0 # cp
     45      1   1  0.000000    19.289600000    10.998600000     7.697570000   0   0   0 # cp
     46      1   1 -0.100000    19.937800000    11.358000000     8.832480000   0   0   0 # cp
     47      1   1 -0.100000    21.297400000    11.206900000     8.938300000   0   0   0 # cp
     48      1   1  0.000000    22.022500000    10.539800000     7.889110000   0   0   0 # cp
     49      1   2  0.100000    26.401300000     7.882080000    15.545200000   0   0   0 # h
     50      1   2  0.100000    25.918900000     7.212360000    11.360300000   0   0   0 # h
     51      1   2  0.100000    25.816700000     4.894150000    11.735200000   0   0   0 # h
     52      1   2  0.100000    25.968500000     5.609920000    15.985500000   0   0   0 # h
     53      1   2  0.100000    27.755300000     8.810840000    10.900100000   0   0   0 # h
     54      1   2  0.100000    30.127500000     8.805550000    10.599400000   0   0   0 # h
     55      1   2  0.100000    30.688000000    10.170100000    14.568700000   0   0   0 # h
     56      1   2  0.100000    28.260900000    10.196600000    14.880600000   0   0   0 # h
     57      1   2  0.100000    23.676500000     8.653460000    12.401200000   0   0   0 # h
     58      1   2  0.100000    22.543600000     9.018290000    10.280200000   0   0   0 # h
     59      1   2  0.100000    25.749100000    11.621300000     9.122540000   0   0   0 # h
     60      1   2  0.100000    26.843200000    11.267900000    11.147000000   0   0   0 # h
     61      1   2  0.100000    22.162800000     5.702250000     7.705200000   0   0   0 # h
     62      1   2  0.100000    21.762400000     7.937030000     7.872350000   0   0   0 # h
     63      1   2  0.100000    26.003000000     8.722700000     7.897900000   0   0   0 # h
     64      1   2  0.100000    26.404100000     6.337460000     7.839370000   0   0   0 # h
     65      1   2  0.100000    23.675000000    12.932500000     7.947260000   0   0   0 # h
     66      1   2  0.100000    24.961500000    14.440800000     6.658770000   0   0   0 # h
     67      1   2  0.100000    26.415600000    11.248100000     4.276640000   0   0   0 # h
     68      1   2  0.100000    25.202200000     9.660810000     5.746690000   0   0   0 # h
     69      1   2  0.100000    21.867800000     9.879550000     5.853370000   0   0   0 # h
     70      1   2  0.100000    19.541800000    10.259900000     5.724690000   0   0   0 # h
     71      1   2  0.100000    19.355500000    11.758100000     9.673740000   0   0   0 # h
     72      1   2  0.100000    21.813300000    11.535900000     9.819940000   0   0   0 # h
     73      1   1  0.000000    25.989800000    13.346700000     2.191270000   0   0   0 # cp
     74      1   1 -0.100000    27.175100000    13.298000000     1.516310000   0   0   0 # cp
     75      1   1 -0.100000    27.398626517    12.337009301     0.562309074   0   0   0 # cp
     76      1   1  0.000000    26.434526517    11.383009301     0.261209074   0   0   0 # cp
     77      1   1 -0.100000    25.276526517    11.435309301     1.034909074   0   0   0 # cp
     78      1   1 -0.100000    25.032400000    12.406300000     1.960220000   0   0   0 # cp
     79      1   2  0.100000    27.942800000    14.020800000     1.708180000   0   0   0 # h
     80      1   2  0.100000    28.673800000    12.479900000    25.733100000   0   0   0 # h
     81      1   2  0.100000    24.484826517    10.721009301     0.841009074   0   0   0 # h
     82      1   2  0.100000    24.068300000    12.550900000     2.444290000   0   0   0 # h
     83      1   1 -0.100000    26.555626517     8.464119301     1.004309074   0   0   0 # cp
     84      1   1  0.000000    27.236900000     8.876790000    25.477200000   0   0   0 # cp
     85      1   1 -0.100000    27.703300000     7.850880000    24.661400000   0   0   0 # cp
     86      1   1 -0.100000    27.672000000     6.538400000    25.055000000   0   0   0 # cp
     87      1   1  0.000000    26.951826517     6.142709301     0.568109074   0   0   0 # cp
     88      1   1 -0.100000    26.644800000     7.154910000     1.439980000   0   0   0 # cp
     89      1   3  0.000000    26.956600000    10.391700000    24.851300000   0   0   0 # c
     90      1   1  0.000000    28.222100000    10.745700000    23.907700000   0   0   0 # cp
     91      1   1 -0.100000    28.095700000    11.426600000    22.711300000   0   0   0 # cp
     92      1   1 -0.100000    29.161400000    11.643800000    21.881700000   0   0   0 # cp
     93      1   1  0.000000    30.425600000    11.189200000    22.258900000   0   0   0 # cp
     94      1   1 -0.100000    30.580100000    10.550700000    23.451300000   0   0   0 # cp
     95      1   1 -0.100000    29.494500000    10.391300000    24.282300000   0   0   0 # cp
     96      1   1 -0.100000    25.245300000     9.205480000    23.222100000   0   0   0 # cp
     97      1   1 -0.100000    23.982400000     9.099770000    22.706800000   0   0   0 # cp
     98      1   1  0.000000    23.034300000    10.118000000    22.860600000   0   0   0 # cp
     99      1   1 -0.100000    23.474000000    11.317500000    23.413200000   0   0   0 # cp
    100      1   1 -0.100000    24.739300000    11.404300000    23.958700000   0   0   0 # cp
    101      1   1  0.000000    25.594200000    10.323800000    23.987400000   0   0   0 # cp
    102      1   3  0.000000    21.523600000     9.900300000    22.272200000   0   0   0 # c
    103      1   1  0.000000    20.379400000     5.671870000    22.109500000   0   0   0 # cp
    104      1   1 -0.100000    21.008200000     6.196100000    23.209100000   0   0   0 # cp
    105      1   1 -0.100000    21.337600000     7.512670000    23.245100000   0   0   0 # cp
    106      1   1  0.000000    21.077200000     8.361850000    22.166700000   0   0   0 # cp
    107      1   1 -0.100000    20.316200000     7.849200000    21.113800000   0   0   0 # cp
    108      1   1 -0.100000    20.014300000     6.518660000    21.061500000   0   0   0 # cp
    109      1   1  0.000000    21.701400000    10.720300000    20.913200000   0   0   0 # cp
    110      1   1 -0.100000    21.446400000    12.072700000    20.805000000   0   0   0 # cp
    111      1   1 -0.100000    22.034300000    12.849300000    19.836200000   0   0   0 # cp
    112      1   1  0.000000    22.847000000    12.284000000    18.891500000   0   0   0 # cp
    113      1   1 -0.100000    23.015700000    10.931100000    18.909700000   0   0   0 # cp
    114      1   1 -0.100000    22.467900000    10.154600000    19.900600000   0   0   0 # cp
    115      1   1 -0.100000    19.149500000    10.813700000    22.672400000   0   0   0 # cp
    116      1   1 -0.100000    18.099700000    11.210000000    23.462500000   0   0   0 # cp
    117      1   1  0.000000    18.254700000    11.289800000    24.801300000   0   0   0 # cp
    118      1   1 -0.100000    19.454100000    10.925100000    25.374600000   0   0   0 # cp
    119      1   1 -0.100000    20.487600000    10.504000000    24.586700000   0   0   0 # cp
    120      1   1  0.000000    20.369800000    10.448300000    23.213500000   0   0   0 # cp
    121      1   2  0.100000    26.328600000     9.216730000     1.734720000   0   0   0 # h
    122      1   2  0.100000    28.008200000     8.026810000    23.630400000   0   0   0 # h
    123      1   2  0.100000    27.818900000     5.769440000    24.338000000   0   0   0 # h
    124      1   2  0.100000    26.383700000     6.947340000     2.482310000   0   0   0 # h
    125      1   2  0.100000    27.171700000    11.867100000    22.426500000   0   0   0 # h
    126      1   2  0.100000    29.016700000    12.197700000    20.947900000   0   0   0 # h
    127      1   2  0.100000    31.543100000    10.166200000    23.791400000   0   0   0 # h
    128      1   2  0.100000    29.661400000     9.856240000    25.232500000   0   0   0 # h
    129      1   2  0.100000    25.885600000     8.369520000    23.030600000   0   0   0 # h
    130      1   2  0.100000    23.744000000     8.213710000    22.151200000   0   0   0 # h
    131      1   2  0.100000    22.764800000    12.113000000    23.451300000   0   0   0 # h
    132      1   2  0.100000    24.994000000    12.345900000    24.401100000   0   0   0 # h
    133      1   2  0.100000    21.294600000     5.555990000    24.050000000   0   0   0 # h
    134      1   2  0.100000    21.856000000     7.866540000    24.134500000   0   0   0 # h
    135      1   2  0.100000    19.997000000     8.474130000    20.268700000   0   0   0 # h
    136      1   2  0.100000    19.491000000     6.170600000    20.177800000   0   0   0 # h
    137      1   2  0.100000    20.952000000    12.561200000    21.637100000   0   0   0 # h
    138      1   2  0.100000    21.912900000    13.929700000    19.897300000   0   0   0 # h
    139      1   2  0.100000    23.741900000    10.442500000    18.293100000   0   0   0 # h
    140      1   2  0.100000    22.720700000     9.118150000    19.933400000   0   0   0 # h
    141      1   2  0.100000    19.009200000    10.720200000    21.594700000   0   0   0 # h
    142      1   2  0.100000    17.188400000    11.519600000    22.988500000   0   0   0 # h
    143      1   2  0.100000    19.183526517    10.935609301     0.650709074   0   0   0 # h
    144      1   2  0.100000    21.393900000    10.155100000    25.097400000   0   0   0 # h
    145      1   1  0.000000   -19.103700000    12.114600000     7.183250000   1   0   0 # cp
    146      1   1 -0.100000    38.378800000    12.263700000     8.309370000   0   0   0 # cp
    147      1   1 -0.100000    38.059500000    11.167600000     9.086080000   0   0   0 # cp
    148      1   1  0.000000    38.512100000     9.870480000     8.756940000   0   0   0 # cp
    149      1   1 -0.100000    39.357700000     9.777580000     7.651810000   0   0   0 # cp
    150      1   1 -0.100000   -18.577400000    10.871300000     6.914540000   1   0   0 # cp
    151      1   2  0.100000    37.950400000    13.220000000     8.553150000   0   0   0 # h
    152      1   2  0.100000    37.436300000    11.303200000     9.965650000   0   0   0 # h
    153      1   2  0.100000    39.776100000     8.831130000     7.350710000   0   0   0 # h
    154      1   2  0.100000   -17.976700000    10.698500000     6.038830000   1   0   0 # h
    155      1   1 -0.100000    37.480600000     7.138410000     7.694620000   0   0   0 # cp
    156      1   1  0.000000    38.069000000     7.217780000     8.954360000   0   0   0 # cp
    157      1   1 -0.100000    38.477100000     6.040530000     9.565430000   0   0   0 # cp
    158      1   1 -0.100000    38.360200000     4.843420000     8.893070000   0   0   0 # cp
    159      1   1  0.000000    37.816800000     4.766770000     7.633730000   0   0   0 # cp
    160      1   1 -0.100000    37.386200000     5.946180000     7.013880000   0   0   0 # cp
    161      1   3  0.000000    38.180000000     8.638180000     9.728380000   0   0   0 # c
    162      1   1  0.000000    36.733400000     8.690340000    10.373600000   0   0   0 # cp
    163      1   1 -0.100000    36.473600000     8.112590000    11.600200000   0   0   0 # cp
    164      1   1 -0.100000    35.194800000     7.966190000    12.064500000   0   0   0 # cp
    165      1   1  0.000000    34.125100000     8.448500000    11.357000000   0   0   0 # cp
    166      1   1 -0.100000    34.359300000     9.060720000    10.139400000   0   0   0 # cp
    167      1   1 -0.100000    35.634100000     9.153460000     9.663530000   0   0   0 # cp
    168      1   1 -0.100000    40.698600000     8.257810000    10.257000000   0   0   0 # cp
    169      1   1 -0.100000   -16.442800000     8.534370000    10.963600000   1   0   0 # cp
    170      1   1  0.000000   -16.480200000     9.318470000    12.096100000   1   0   0 # cp
    171      1   1 -0.100000   -17.723600000     9.704190000    12.557900000   1   0   0 # cp
    172      1   1 -0.100000    39.422600000     9.499230000    11.819400000   0   0   0 # cp
    173      1   1  0.000000    39.457200000     8.738100000    10.669900000   0   0   0 # cp
    174      1   3  0.000000   -15.136699065     9.501680000    12.977000000   1   0   0 # c
    175      1   1  0.000000   -15.135300000     5.198040000    13.624500000   1   0   0 # cp
    176      1   1 -0.100000   -14.158999065     5.723070000    12.838200000   1   0   0 # cp
    177      1   1 -0.100000   -14.048899065     7.081650000    12.760400000   1   0   0 # cp
    178      1   1  0.000000   -14.933999065     7.937420000    13.398200000   1   0   0 # cp
    179      1   1 -0.100000   -15.876600000     7.376910000    14.220900000   1   0   0 # cp
    180      1   1 -0.100000    42.273200000     6.030270000    14.314900000   0   0   0 # cp
    181      1   1  0.000000   -15.246799065    10.509100000    14.170700000   1   0   0 # cp
    182      1   1 -0.100000   -15.756299065    11.778300000    13.988600000   1   0   0 # cp
    183      1   1 -0.100000   -15.961099065    12.594000000    15.045100000   1   0   0 # cp
    184      1   1  0.000000   -15.637099065    12.233200000    16.318600000   1   0   0 # cp
    185      1   1 -0.100000   -15.052099065    10.993600000    16.516500000   1   0   0 # cp
    186      1   1 -0.100000   -14.840899065    10.166700000    15.449900000   1   0   0 # cp
    187      1   1 -0.100000   -12.636399065     9.962770000    12.580200000   1   0   0 # cp
    188      1   1 -0.100000   -11.564399065    10.420900000    11.844900000   1   0   0 # cp
    189      1   1  0.000000   -11.778899065    11.050400000    10.623600000   1   0   0 # cp
    190      1   1 -0.100000   -13.075199065    11.206400000    10.170200000   1   0   0 # cp
    191      1   1 -0.100000   -14.142699065    10.831300000    10.962300000   1   0   0 # cp
    192      1   1  0.000000   -13.909199065    10.119800000    12.137800000   1   0   0 # cp
    193      1   2  0.100000    37.173400000     8.024640000     7.186770000   0   0   0 # h
    194      1   2  0.100000    38.908700000     6.074910000    10.568300000   0   0   0 # h
    195      1   2  0.100000    38.674900000     3.930940000     9.411810000   0   0   0 # h
    196      1   2  0.100000    36.945800000     5.915290000     6.042860000   0   0   0 # h
    197      1   2  0.100000    37.245700000     7.674130000    12.205300000   0   0   0 # h
    198      1   2  0.100000    35.053900000     7.487010000    13.015500000   0   0   0 # h
    199      1   2  0.100000    33.514500000     9.390020000     9.561960000   0   0   0 # h
    200      1   2  0.100000    35.740800000     9.526810000     8.688890000   0   0   0 # h
    201      1   2  0.100000    40.770300000     7.680330000     9.328960000   0   0   0 # h
    202      1   2  0.100000   -15.509699065     8.141700000    10.614000000   1   0   0 # h
    203      1   2  0.100000   -17.872800000    10.313300000    13.426900000   1   0   0 # h
    204      1   2  0.100000    38.474500000    10.001100000    12.133000000   0   0   0 # h
    205      1   2  0.100000   -13.453199065     5.100060000    12.302400000   1   0   0 # h
    206      1   2  0.100000   -13.270299065     7.424910000    12.091400000   1   0   0 # h
    207      1   2  0.100000   -16.607900000     7.975280000    14.723500000   1   0   0 # h
    208      1   2  0.100000    41.481300000     5.616250000    14.907800000   0   0   0 # h
    209      1   2  0.100000   -16.064799065    12.132700000    12.992500000   1   0   0 # h
    210      1   2  0.100000   -16.380799065    13.564000000    14.899400000   1   0   0 # h
    211      1   2  0.100000   -14.777399065    10.652100000    17.508800000   1   0   0 # h
    212      1   2  0.100000   -14.393199065     9.199800000    15.646300000   1   0   0 # h
    213      1   2  0.100000   -12.421899065     9.427310000    13.497700000   1   0   0 # h
    214      1   2  0.100000   -10.594799065    10.261800000    12.268800000   1   0   0 # h
    215      1   2  0.100000   -13.260499065    11.683600000     9.206660000   1   0   0 # h
    216      1   2  0.100000   -15.133599065    11.073600000    10.582200000   1   0   0 # h
    217      1   1  0.000000   -16.876199065    12.228300000    19.554300000   1   0   0 # cp
    218      1   1 -0.100000   -17.833599065    13.010700000    20.137500000   1   0   0 # cp
    219      1   1 -0.100000   -18.922000000    12.425100000    20.742000000   1   0   0 # cp
    220      1   1  0.000000    39.177700000    11.027400000    20.757300000   0   0   0 # cp
    221      1   1 -0.100000   -18.102400000    10.277200000    20.137300000   1   0   0 # cp
    222      1   1 -0.100000   -17.021999065    10.858400000    19.562700000   1   0   0 # cp
    223      1   2  0.100000   -17.798699065    14.085500000    20.134200000   1   0   0 # h
    224      1   2  0.100000   -19.614800000    13.064900000    21.297900000   1   0   0 # h
    225      1   2  0.100000    40.140400000     9.187020000    20.201300000   0   0   0 # h
    226      1   2  0.100000   -16.292599065    10.241900000    19.104800000   1   0   0 # h
    227      1   1 -0.100000    37.411800000     8.595470000    19.870000000   0   0   0 # cp
    228      1   1  0.000000    37.509900000     8.920150000    21.221600000   0   0   0 # cp
    229      1   1 -0.100000    37.062800000     7.986250000    22.150800000   0   0   0 # cp
    230      1   1 -0.100000    36.641800000     6.739580000    21.746300000   0   0   0 # cp
    231      1   1  0.000000    36.634800000     6.406500000    20.428100000   0   0   0 # cp
    232      1   1 -0.100000    36.960500000     7.355510000    19.494700000   0   0   0 # cp
    233      1   3  0.000000    38.067900000    10.344600000    21.672200000   0   0   0 # c
    234      1   1  0.000000    36.702100000    11.118500000    21.794300000   0   0   0 # cp
    235      1   1 -0.100000    35.926200000    10.945800000    22.908800000   0   0   0 # cp
    236      1   1 -0.100000    34.656400000    11.469400000    23.011900000   0   0   0 # cp
    237      1   1  0.000000    34.073100000    12.057600000    21.907700000   0   0   0 # cp
    238      1   1 -0.100000    34.832900000    12.252200000    20.776100000   0   0   0 # cp
    239      1   1 -0.100000    36.131400000    11.805100000    20.723400000   0   0   0 # cp
    240      1   1 -0.100000    39.732600000     9.121650000    23.197300000   0   0   0 # cp
    241      1   1 -0.100000    40.496800000     8.982360000    24.317800000   0   0   0 # cp
    242      1   1  0.000000   -17.754900000     9.950240000    25.320200000   1   0   0 # cp
    243      1   1 -0.100000   -18.453100000    11.119100000    25.043900000   1   0   0 # cp
    244      1   1 -0.100000    39.041700000    11.263200000    23.935000000   0   0   0 # cp
    245      1   1  0.000000    38.929700000    10.248800000    23.007100000   0   0   0 # cp
    246      1   3  0.000000   -17.291673483     9.575269301     0.890209074   1   0   0 # c
    247      1   1  0.000000    40.563300000     5.295430000     1.811810000   0   0   0 # cp
    248      1   1 -0.100000    41.771600000     5.914100000     2.019710000   0   0   0 # cp
    249      1   1 -0.100000   -16.360800000     7.261210000     1.730720000   1   0   0 # cp
    250      1   1  0.000000    40.853700000     8.032670000     1.322740000   0   0   0 # cp
    251      1   1 -0.100000    39.651626517     7.363529301     1.207909074   0   0   0 # cp
    252      1   1 -0.100000    39.480800000     6.023530000     1.436410000   0   0   0 # cp
    253      1   1  0.000000   -17.908300000    10.483800000     2.065630000   1   0   0 # cp
    254      1   1 -0.100000   -17.423899065    11.760800000     2.208660000   1   0   0 # cp
    255      1   1 -0.100000   -17.998999065    12.670900000     3.064340000   1   0   0 # cp
    256      1   1  0.000000   -19.055000000    12.317800000     3.867990000   1   0   0 # cp
    257      1   1 -0.100000    38.724600000    11.038600000     3.783120000   0   0   0 # cp
    258      1   1 -0.100000    39.310200000    10.133000000     2.900420000   0   0   0 # cp
    259      1   1 -0.100000   -14.858199065    10.133200000     1.685980000   1   0   0 # cp
    260      1   1 -0.100000   -13.515099065    10.379300000     1.472690000   1   0   0 # cp
    261      1   1  0.000000   -12.229925213    10.554390777    51.738515642   1   0  -1 # cp
    262      1   1 -0.100000   -13.455899065    10.287600000    24.861500000   1   0   0 # cp
    263      1   1 -0.100000   -14.792599065    10.078600000    25.102200000   1   0   0 # cp
    264      1   1  0.000000   -15.717272547     9.946409301     0.608909074   1   0   0 # cp
    265      1   2  0.100000    37.586400000     9.356680000    19.102900000   0   0   0 # h
    266      1   2  0.100000    37.133300000     8.166810000    23.222900000   0   0   0 # h
    267      1   2  0.100000    36.339300000     6.027760000    22.499500000   0   0   0 # h
    268      1   2  0.100000    36.885000000     7.147800000    18.439100000   0   0   0 # h
    269      1   2  0.100000    36.295400000    10.304900000    23.695500000   0   0   0 # h
    270      1   2  0.100000    34.062400000    11.274200000    23.907900000   0   0   0 # h
    271      1   2  0.100000    34.394300000    12.741400000    19.926600000   0   0   0 # h
    272      1   2  0.100000    36.665300000    11.950100000    19.796300000   0   0   0 # h
    273      1   2  0.100000    39.825400000     8.296370000    22.511200000   0   0   0 # h
    274      1   2  0.100000    41.084300000     8.093690000    24.446700000   0   0   0 # h
    275      1   2  0.100000   -18.465700000    11.940100000    25.752400000   1   0   0 # h
    276      1   2  0.100000    38.443100000    12.172700000    23.795200000   0   0   0 # h
    277      1   2  0.100000    42.666600000     5.354140000     2.309450000   0   0   0 # h
    278      1   2  0.100000   -15.358399065     7.605220000     1.749260000   1   0   0 # h
    279      1   2  0.100000    38.739926517     7.894829301     0.922909074   0   0   0 # h
    280      1   2  0.100000    38.528726517     5.578069301     1.202409074   0   0   0 # h
    281      1   2  0.100000   -16.683999065    12.197600000     1.535520000   1   0   0 # h
    282      1   2  0.100000   -17.598799065    13.652800000     3.124860000   1   0   0 # h
    283      1   2  0.100000    37.910500000    10.702600000     4.442890000   0   0   0 # h
    284      1   2  0.100000    38.910000000     9.144150000     2.893870000   0   0   0 # h
    285      1   2  0.100000   -15.211199065    10.110600000     2.717220000   1   0   0 # h
    286      1   2  0.100000   -12.852499065    10.587700000     2.335060000   1   0   0 # h
    287      1   2  0.100000   -13.067699065    10.235000000    23.854400000   1   0   0 # h
    288      1   2  0.100000   -15.402599065     9.945980000    24.203300000   1   0   0 # h
    289      1   1  0.000000     8.171350000    44.688300000     7.802690000   0   0   0 # cp
    290      1   1 -0.100000     7.256540000    44.355000000     6.840180000   0   0   0 # cp
    291      1   1 -0.100000     6.956390000    45.226900000     5.832430000   0   0   0 # cp
    292      1   1  0.000000     7.501060000    46.506300000     5.818270000   0   0   0 # cp
    293      1   1 -0.100000     8.457670000    46.826400000     6.761470000   0   0   0 # cp
    294      1   1 -0.100000     8.840900000    45.899900000     7.678910000   0   0   0 # cp
    295      1   2  0.100000     6.709440000    43.424100000     6.928030000   0   0   0 # h
    296      1   2  0.100000     6.219990000    44.900300000     5.104780000   0   0   0 # h
    297      1   2  0.100000     8.980470000    47.806100000     6.759470000   0   0   0 # h
    298      1   2  0.100000     9.566650000    46.136800000     8.413280000   0   0   0 # h
    299      1   1 -0.100000     6.398100000    49.258000000     6.577290000   0   0   0 # cp