LAMMPS data file. msi2lmp v3.9.11 / 6 Sep 2024 / CGCMM for znz_0_opt

   2880 atoms
   3168 bonds
   5568 angles
   8928 dihedrals
   1344 impropers

   4 atom types
   6 bond types
   9 angle types
  13 dihedral types
   3 improper types

    -8.432387523    49.219012477 xlo xhi
    -1.061295478    50.130184497 ylo yhi
     0.460826378    45.238327417 zlo zhi
   -28.903330850     6.488483774    -4.685215619 xy xz yz

Masses

   1  12.011150 # cp
   2   1.007970 # h
   3  12.011150 # c
   4  12.011150 # c2

Pair Coeffs # lj/cut/coul/long

   1   0.1479999981   3.6170487995 # cp
   2   0.0380000011   2.4499714540 # h
   3   0.1599999990   3.4745050026 # c
   4   0.0389999952   3.8754094636 # c2

Bond Coeffs # harmonic

   1   480.0000     1.3400 # cp-cp
   2   283.0924     1.5100 # cp-c2
   3   363.4164     1.0800 # cp-h
   4   283.0924     1.5100 # cp-c
   5   340.6175     1.1050 # h-c2
   6   322.7158     1.5260 # c2-c2

Angle Coeffs # harmonic

   1    90.0000   120.0000 # cp-cp-cp
   2    44.2000   120.0000 # cp-cp-c2
   3    37.0000   120.0000 # cp-cp-h
   4    44.2000   120.0000 # cp-cp-c
   5    46.6000   110.5000 # cp-c-cp
   6    44.4000   110.0000 # cp-c2-h
   7    46.6000   110.5000 # cp-c2-c2
   8    44.4000   110.0000 # h-c2-c2
   9    39.5000   106.4000 # h-c2-h

Dihedral Coeffs # harmonic

  1     3.0000  -1   2 # cp-cp-cp-cp
  2     3.0000  -1   2 # cp-cp-cp-h
  3     3.0000  -1   2 # cp-cp-cp-c2
  4     3.0000  -1   2 # h-cp-cp-c2
  5     0.0000   1   2 # cp-cp-c2-c2
  6     0.0000   1   2 # cp-cp-c2-h
  7     3.0000  -1   2 # h-cp-cp-h
  8     3.0000  -1   2 # cp-cp-cp-c
  9     3.0000  -1   2 # h-cp-cp-c
 10     0.6750   1   4 # cp-cp-c-cp
 11     0.1581   1   3 # cp-c2-c2-cp
 12     0.1581   1   3 # cp-c2-c2-h
 13     0.1581   1   3 # h-c2-c2-h

Improper Coeffs # cvff

    1     0.3700  -1   2 # cp-cp-cp-c2
    2     0.3700  -1   2 # cp-cp-cp-h
    3     0.3700  -1   2 # cp-cp-cp-c

Atoms # full

      1      1   1  0.000000    15.399000000    18.050800000    20.326000000   0   0   0 # cp
      2      1   1 -0.100000    16.536300000    18.584900000    19.808800000   0   0   0 # cp
      3      1   1 -0.100000    16.748895442    19.932300000    19.840600000   0   0   0 # cp
      4      1   1  0.000000    15.802195442    20.827500000    20.347000000   0   0   0 # cp
      5      1   1 -0.100000    14.646500000    20.251100000    20.903500000   0   0   0 # cp
      6      1   1 -0.100000    14.510300000    18.861100000    20.959900000   0   0   0 # cp
      7      1   2  0.100000    17.201795442    17.921500000    19.290800000   0   0   0 # h
      8      1   2  0.100000    17.674695442    20.257200000    19.385100000   0   0   0 # h
      9      1   2  0.100000    13.879800000    20.856200000    21.333000000   0   0   0 # h
     10      1   2  0.100000    13.626000000    18.458900000    21.395900000   0   0   0 # h
     11      1   1 -0.100000    13.779500000    23.136700000    19.696400000   0   0   0 # cp
     12      1   1  0.000000    14.953240222    23.454589625    20.341300000   0   0   0 # cp
     13      1   1 -0.100000    29.492925442    -0.900718000    20.961900000   0   0   0 # cp
     14      1   1 -0.100000    28.405853442    -0.077154400    21.072300000   0   0   0 # cp
     15      1   1  0.000000    27.182600000    -0.495033000    20.589700000   0   0   0 # cp
     16      1   1 -0.100000    27.114800000    -1.682080000    19.852100000   0   0   0 # cp
     17      1   3  0.000000    16.124495442    22.383000000    20.486100000   0   0   0 # c
     18      1   1  0.000000    17.084495442    22.898700000    19.330600000   0   0   0 # cp
     19      1   1 -0.100000     3.593780000    -1.669090000    19.593800000   0   0   0 # cp
     20      1   1 -0.100000     4.212710000    -0.986517000    18.577800000   0   0   0 # cp
     21      1   1  0.000000     4.056380000    -1.387500000    17.271500000   0   0   0 # cp
     22      1   1 -0.100000   -11.223900000    23.135000000    16.987500000   0   0   0 # cp
     23      1   1 -0.100000    16.893195442    22.524400000    18.003500000   0   0   0 # cp
     24      1   1 -0.100000    15.765795442    22.399600000    23.060700000   0   0   0 # cp
     25      1   1 -0.100000    16.096795442    21.955700000    24.308200000   0   0   0 # cp
     26      1   1  0.000000    17.322595442    21.407800000    24.580100000   0   0   0 # cp
     27      1   1 -0.100000    18.298495442    21.543600000    23.597800000   0   0   0 # cp
     28      1   1 -0.100000    17.954195442    21.929900000    22.296000000   0   0   0 # cp
     29      1   1  0.000000    16.652495442    22.317600000    21.991000000   0   0   0 # cp
     30      1   3  0.000000    17.500595442    20.571800000    25.936800000   0   0   0 # c
     31      1   1  0.000000    14.290600000    17.627800000    26.540400000   0   0   0 # cp
     32      1   1 -0.100000    14.843800000    18.297400000    27.619000000   0   0   0 # cp
     33      1   1 -0.100000    15.851200000    19.200700000    27.463400000   0   0   0 # cp
     34      1   1  0.000000    16.288800000    19.550800000    26.176100000   0   0   0 # cp
     35      1   1 -0.100000    15.698100000    18.925100000    25.105200000   0   0   0 # cp
     36      1   1 -0.100000    14.741500000    17.972700000    25.273000000   0   0   0 # cp
     37      1   1  0.000000    17.627895442    21.775100000    26.980000000   0   0   0 # cp
     38      1   1 -0.100000    -9.960900000    22.360100000    27.228900000   0   0   0 # cp
     39      1   1 -0.100000     4.612160000    -2.224460000    28.145300000   0   0   0 # cp
     40      1   1  0.000000     3.512850000    -1.745040000    28.795900000   0   0   0 # cp
     41      1   1 -0.100000    31.099755442    -2.267100000    28.528700000   0   0   0 # cp
     42      1   1 -0.100000    16.526095442    22.349100000    27.593300000   0   0   0 # cp
     43      1   1 -0.100000    19.188595442    19.097400000    27.314300000   0   0   0 # cp
     44      1   1 -0.100000    19.963755442    17.972800000    27.465800000   0   0   0 # cp
     45      1   1  0.000000    20.303995442    17.220300000    26.378400000   0   0   0 # cp
     46      1   1 -0.100000    19.930115442    17.636100000    25.135800000   0   0   0 # cp
     47      1   1 -0.100000    19.073655442    18.698000000    24.975700000   0   0   0 # cp
     48      1   1  0.000000    18.683295442    19.459700000    26.051700000   0   0   0 # cp
     49      1   2  0.100000    13.735000000    22.207400000    19.139700000   0   0   0 # h
     50      1   2  0.100000    30.435385442    -0.634288000    21.403800000   0   0   0 # h
     51      1   2  0.100000    28.515858442     0.882742000    21.559100000   0   0   0 # h
     52      1   2  0.100000    26.157800000    -2.006610000    19.440600000   0   0   0 # h
     53      1   2  0.100000     3.722280000    -1.367900000    20.630600000   0   0   0 # h
     54      1   2  0.100000     4.890180000    -0.161990000    18.833100000   0   0   0 # h
     55      1   2  0.100000   -11.378600000    22.805800000    15.997000000   0   0   0 # h
     56      1   2  0.100000    16.106795442    21.801500000    17.805500000   0   0   0 # h
     57      1   2  0.100000    14.741795442    22.660200000    22.855500000   0   0   0 # h
     58      1   2  0.100000    15.289000000    21.916200000    25.030400000   0   0   0 # h
     59      1   2  0.100000    -9.506880000    21.216100000    23.786800000   0   0   0 # h
     60      1   2  0.100000   -10.145400000    21.860700000    21.534100000   0   0   0 # h
     61      1   2  0.100000    14.472800000    18.133000000    28.605800000   0   0   0 # h
     62      1   2  0.100000    16.256100000    19.664300000    28.361900000   0   0   0 # h
     63      1   2  0.100000    16.043100000    19.073600000    24.080300000   0   0   0 # h
     64      1   2  0.100000    14.343900000    17.509100000    24.363400000   0   0   0 # h
     65      1   2  0.100000    -9.092310000    22.023400000    26.648700000   0   0   0 # h
     66      1   2  0.100000     5.598570000    -1.789590000    28.361200000   0   0   0 # h
     67      1   2  0.100000    30.232495442    -1.852620000    29.044200000   0   0   0 # h
     68      1   2  0.100000    15.523300000    21.992900000    27.497100000   0   0   0 # h
     69      1   2  0.100000    18.933445442    19.643600000    28.218100000   0   0   0 # h
     70      1   2  0.100000    20.290075442    17.688500000    28.450000000   0   0   0 # h
     71      1   2  0.100000    20.140935442    17.033800000    24.280600000   0   0   0 # h
     72      1   2  0.100000    18.617395442    18.868900000    24.025600000   0   0   0 # h
     73      1   1  0.000000    30.360455442    -0.627516000    42.156000000   0   0   0 # cp
     74      1   1 -0.100000    31.192935442     0.232164000    41.489200000   0   0   0 # cp
     75      1   1 -0.100000    31.261765442     0.177856000    40.110900000   0   0   0 # cp
     76      1   1  0.000000    30.479685442    -0.660839000    39.363800000   0   0   0 # cp
     77      1   1 -0.100000    29.593300000    -1.488010000    40.072000000   0   0   0 # cp
     78      1   1 -0.100000    29.561500000    -1.476350000    41.453300000   0   0   0 # cp
     79      1   2  0.100000    31.819035442     0.915195000    42.069900000   0   0   0 # h
     80      1   2  0.100000     3.214560000     0.742014000    39.661800000   0   0   0 # h
     81      1   2  0.100000    28.968500000    -2.231340000    39.571200000   0   0   0 # h
     82      1   2  0.100000    28.956100000    -2.199400000    41.961700000   0   0   0 # h
     83      1   1 -0.100000    28.244800000    -0.292244000    37.349500000   0   0   0 # cp
     84      1   1  0.000000    29.396937442    -0.923031000    36.956100000   0   0   0 # cp
     85      1   1 -0.100000    29.362900000    -1.673640000    35.782800000   0   0   0 # cp
     86      1   1 -0.100000    28.236700000    -1.760090000    35.001900000   0   0   0 # cp
     87      1   1  0.000000    27.075000000    -1.133190000    35.422200000   0   0   0 # cp
     88      1   1 -0.100000    27.091200000    -0.412792000    36.612900000   0   0   0 # cp
     89      1   3  0.000000    30.733595442    -0.794117000    37.815300000   0   0   0 # c
     90      1   1  0.000000    31.689525442    -2.078330000    37.821200000   0   0   0 # cp
     91      1   1 -0.100000    33.058155442    -1.886840000    37.894000000   0   0   0 # cp
     92      1   1 -0.100000     5.110570000    -2.916080000    37.677800000   0   0   0 # cp
     93      1   1  0.000000    19.011670222    21.413369625    37.482300000   0   0   0 # cp
     94      1   1 -0.100000    17.658995442    21.166900000    37.645500000   0   0   0 # cp
     95      1   1 -0.100000    31.227915442    -3.377210000    37.768700000   0   0   0 # cp
     96      1   1 -0.100000     3.168410000     0.224059000    35.820500000   0   0   0 # cp
     97      1   1 -0.100000     3.447590000     1.224630000    34.936400000   0   0   0 # cp
     98      1   1  0.000000     3.086940000     2.545780000    35.220500000   0   0   0 # cp
     99      1   1 -0.100000     2.534180000     2.766280000    36.483400000   0   0   0 # cp
    100      1   1 -0.100000    31.012385442     1.752710000    37.328300000   0   0   0 # cp
    101      1   1  0.000000    31.308325442     0.457334000    37.007100000   0   0   0 # cp
    102      1   3  0.000000     3.090330000     3.744520000    34.133000000   0   0   0 # c
    103      1   1  0.000000     3.593990000     1.847300000    30.256300000   0   0   0 # cp
    104      1   1 -0.100000     2.449750000     2.542010000    30.470800000   0   0   0 # cp
    105      1   1 -0.100000     2.310390000     3.264460000    31.626100000   0   0   0 # cp
    106      1   1  0.000000     3.277930000     3.207670000    32.617200000   0   0   0 # cp
    107      1   1 -0.100000     4.492950000     2.644850000    32.271000000   0   0   0 # cp
    108      1   1 -0.100000     4.635880000     1.958700000    31.121100000   0   0   0 # cp
    109      1   1  0.000000     4.279220000     4.785920000    34.285700000   0   0   0 # cp
    110      1   1 -0.100000     5.199790000     4.693030000    35.344700000   0   0   0 # cp
    111      1   1 -0.100000     5.998900000     5.761650000    35.684900000   0   0   0 # cp
    112      1   1  0.000000     5.945210000     6.930970000    34.952300000   0   0   0 # cp
    113      1   1 -0.100000     5.230050000     6.936720000    33.782400000   0   0   0 # cp
    114      1   1 -0.100000     4.430680000     5.863990000    33.446100000   0   0   0 # cp
    115      1   1 -0.100000     1.560800000     5.720180000    35.000700000   0   0   0 # cp
    116      1   1 -0.100000     0.391302000     6.166190000    35.555500000   0   0   0 # cp
    117      1   1  0.000000    28.089087442     5.369070000    35.468600000   0   0   0 # cp
    118      1   1 -0.100000    28.136388442     4.241610000    34.733200000   0   0   0 # cp
    119      1   1 -0.100000    29.310338442     3.738220000    34.254800000   0   0   0 # cp
    120      1   1  0.000000     1.673220000     4.466040000    34.383500000   0   0   0 # cp
    121      1   2  0.100000    28.254000000     0.296372000    38.223100000   0   0   0 # h
    122      1   2  0.100000    30.204015442    -2.248310000    35.424800000   0   0   0 # h
    123      1   2  0.100000    28.279300000    -2.350090000    34.100200000   0   0   0 # h
    124      1   2  0.100000    26.169800000     0.120326000    36.912400000   0   0   0 # h
    125      1   2  0.100000     4.636420000    -0.884122000    37.992600000   0   0   0 # h
    126      1   2  0.100000     6.175410000    -2.708100000    37.639400000   0   0   0 # h
    127      1   2  0.100000    17.287600000    20.125700000    37.520100000   0   0   0 # h
    128      1   2  0.100000    30.177700000    -3.567130000    37.723600000   0   0   0 # h
    129      1   2  0.100000    32.134465442    -0.780076000    35.452800000   0   0   0 # h
    130      1   2  0.100000     3.788010000     0.928770000    33.963200000   0   0   0 # h
    131      1   2  0.100000     2.297590000     3.765240000    36.827400000   0   0   0 # h
    132      1   2  0.100000    30.454025442     2.030840000    38.223600000   0   0   0 # h
    133      1   2  0.100000     1.610310000     2.553310000    29.775500000   0   0   0 # h
    134      1   2  0.100000     1.363560000     3.755380000    31.801800000   0   0   0 # h
    135      1   2  0.100000     5.328680000     2.635710000    32.952000000   0   0   0 # h
    136      1   2  0.100000     5.582630000     1.452970000    30.936600000   0   0   0 # h
    137      1   2  0.100000     5.226360000     3.814600000    35.984800000   0   0   0 # h
    138      1   2  0.100000     6.563360000     5.735480000    36.579600000   0   0   0 # h
    139      1   2  0.100000     5.191960000     7.863450000    33.198000000   0   0   0 # h
    140      1   2  0.100000     3.837080000     5.914470000    32.544500000   0   0   0 # h
    141      1   2  0.100000     2.395990000     6.412980000    35.159800000   0   0   0 # h
    142      1   2  0.100000     0.445682000     7.093930000    36.102200000   0   0   0 # h
    143      1   2  0.100000    27.275525442     3.579550000    34.695400000   0   0   0 # h
    144      1   2  0.100000    29.324813442     2.736670000    33.829400000   0   0   0 # h
    145      1   1  0.000000    21.965325442    15.629800000    28.891000000   0   0   0 # cp
    146      1   1 -0.100000    -6.079660000    16.503400000    29.599700000   0   0   0 # cp
    147      1   1 -0.100000    -6.189550000    16.545300000    30.979800000   0   0   0 # cp
    148      1   1  0.000000    21.851465442    15.658800000    31.681000000   0   0   0 # cp
    149      1   1 -0.100000    21.117075442    14.714600000    30.954200000   0   0   0 # cp
    150      1   1 -0.100000    21.169085442    14.718200000    29.565000000   0   0   0 # cp
    151      1   2  0.100000    -5.391470000    17.179300000    29.083500000   0   0   0 # h
    152      1   2  0.100000    -5.558890000    17.253800000    31.487100000   0   0   0 # h
    153      1   2  0.100000    20.565835442    13.937800000    31.470600000   0   0   0 # h
    154      1   2  0.100000    20.590955442    13.966700000    29.035800000   0   0   0 # h
    155      1   1 -0.100000    19.318500000    15.551900000    33.517100000   0   0   0 # cp
    156      1   1  0.000000    20.563005442    15.236900000    34.035100000   0   0   0 # cp
    157      1   1 -0.100000    20.629995442    14.778700000    35.341700000   0   0   0 # cp
    158      1   1 -0.100000    19.533100000    14.725300000    36.153000000   0   0   0 # cp
    159      1   1  0.000000    18.333100000    15.150100000    35.665200000   0   0   0 # cp
    160      1   1 -0.100000    18.214000000    15.488900000    34.324200000   0   0   0 # cp
    161      1   3  0.000000    21.918935442    15.665300000    33.259800000   0   0   0 # c
    162      1   1  0.000000    -6.758330000    17.132900000    33.935500000   0   0   0 # cp
    163      1   1 -0.100000    -6.172370000    17.317700000    35.201600000   0   0   0 # cp
    164      1   1 -0.100000    -6.359990000    18.484700000    35.926100000   0   0   0 # cp
    165      1   1  0.000000    -7.140650000    19.474000000    35.411700000   0   0   0 # cp
    166      1   1 -0.100000    -7.669480000    19.357800000    34.135900000   0   0   0 # cp
    167      1   1 -0.100000    21.346555442    18.197600000    33.427800000   0   0   0 # cp
    168      1   1 -0.100000    22.820305442    13.273900000    33.581500000   0   0   0 # cp
    169      1   1 -0.100000    23.730825442    12.395200000    34.141100000   0   0   0 # cp
    170      1   1  0.000000    -3.926450000    12.878500000    34.666800000   0   0   0 # cp
    171      1   1 -0.100000    -3.576480000    14.205500000    34.364800000   0   0   0 # cp
    172      1   1 -0.100000    -4.460050000    15.040500000    33.748700000   0   0   0 # cp
    173      1   1  0.000000    23.087105442    14.644700000    33.512000000   0   0   0 # cp
    174      1   3  0.000000    -3.172660000    12.158700000    35.849200000   0   0   0 # c
    175      1   1  0.000000    23.182435442    14.593400000    38.375800000   0   0   0 # cp
    176      1   1 -0.100000    22.798775442    13.309100000    38.070900000   0   0   0 # cp
    177      1   1 -0.100000    23.639305442    12.477100000    37.397700000   0   0   0 # cp
    178      1   1  0.000000    -3.919660000    12.906700000    37.051400000   0   0   0 # cp
    179      1   1 -0.100000    -3.492790000    14.158500000    37.513100000   0   0   0 # cp
    180      1   1 -0.100000    -4.361830000    15.020200000    38.149100000   0   0   0 # cp
    181      1   1  0.000000    -1.615440000    12.357200000    35.833500000   0   0   0 # cp
    182      1   1 -0.100000    -0.933504000    12.385300000    34.660300000   0   0   0 # cp
    183      1   1 -0.100000     0.414780000    12.563200000    34.653000000   0   0   0 # cp
    184      1   1  0.000000     1.114550000    12.620200000    35.845600000   0   0   0 # cp
    185      1   1 -0.100000     0.432838000    12.523700000    37.036500000   0   0   0 # cp
    186      1   1 -0.100000    -0.913699000    12.326800000    37.029500000   0   0   0 # cp
    187      1   1 -0.100000    25.376445442     9.789610000    36.884400000   0   0   0 # cp
    188      1   1 -0.100000    25.388615442     8.414640000    36.800500000   0   0   0 # cp
    189      1   1  0.000000    25.673275442     7.798640000    35.631400000   0   0   0 # cp
    190      1   1 -0.100000    25.910905442     8.557460000    34.523500000   0   0   0 # cp
    191      1   1 -0.100000    25.787385442     9.913800000    34.562700000   0   0   0 # cp
    192      1   1  0.000000    25.539455442    10.579600000    35.753200000   0   0   0 # cp
    193      1   2  0.100000    19.183300000    15.970300000    32.531700000   0   0   0 # h
    194      1   2  0.100000    21.593575442    14.573900000    35.762500000   0   0   0 # h
    195      1   2  0.100000    19.676800000    14.408700000    37.200100000   0   0   0 # h
    196      1   2  0.100000    17.275200000    15.776500000    33.918200000   0   0   0 # h
    197      1   2  0.100000    -5.735050000    16.496200000    35.713400000   0   0   0 # h
    198      1   2  0.100000    -5.903230000    18.600400000    36.898000000   0   0   0 # h
    199      1   2  0.100000    -8.381960000    20.082600000    33.757100000   0   0   0 # h
    200      1   2  0.100000    20.835805442    18.126800000    32.460600000   0   0   0 # h
    201      1   2  0.100000    21.868065442    12.888800000    33.249600000   0   0   0 # h
    202      1   2  0.100000    23.375375442    11.419100000    34.402900000   0   0   0 # h
    203      1   2  0.100000    -2.665700000    14.692100000    34.708000000   0   0   0 # h
    204      1   2  0.100000    -4.188350000    16.069900000    33.598200000   0   0   0 # h
    205      1   2  0.100000    21.787105442    12.936100000    38.306300000   0   0   0 # h
    206      1   2  0.100000    23.208045442    11.541900000    37.073400000   0   0   0 # h
    207      1   2  0.100000    -2.530720000    14.590600000    37.255000000   0   0   0 # h
    208      1   2  0.100000    -4.087620000    16.023200000    38.389300000   0   0   0 # h
    209      1   2  0.100000    -1.443700000    12.277500000    33.725600000   0   0   0 # h
    210      1   2  0.100000     0.957872000    12.645500000    33.731400000   0   0   0 # h
    211      1   2  0.100000     0.988401000    12.473600000    37.962900000   0   0   0 # h
    212      1   2  0.100000    -1.468800000    12.245700000    37.994300000   0   0   0 # h
    213      1   2  0.100000    25.276725442    10.261500000    37.874300000   0   0   0 # h
    214      1   2  0.100000    25.220155442     7.862810000    37.697300000   0   0   0 # h
    215      1   2  0.100000    26.120975442     8.076090000    33.573400000   0   0   0 # h
    216      1   2  0.100000    -2.859700000    10.515600000    33.696200000   0   0   0 # h
    217      1   1  0.000000    10.875900000    15.639400000    39.948800000   0   0   0 # cp
    218      1   1 -0.100000    11.309900000    14.505900000    39.348500000   0   0   0 # cp
    219      1   1 -0.100000    10.680900000    14.000700000    38.255600000   0   0   0 # cp
    220      1   1  0.000000     9.585780000    14.609500000    37.700300000   0   0   0 # cp
    221      1   1 -0.100000     9.148040000    15.783000000    38.278500000   0   0   0 # cp
    222      1   1 -0.100000     9.780710000    16.282400000    39.406300000   0   0   0 # cp
    223      1   2  0.100000    12.195500000    14.015000000    39.732900000   0   0   0 # h
    224      1   2  0.100000    11.104800000    13.126900000    37.779400000   0   0   0 # h
    225      1   2  0.100000     8.273520000    16.283400000    37.853700000   0   0   0 # h
    226      1   2  0.100000     9.369110000    17.196500000    39.846700000   0   0   0 # h
    227      1   1 -0.100000     6.587650000    14.079800000    37.588700000   0   0   0 # cp
    228      1   1  0.000000     7.317030000    14.146300000    36.419500000   0   0   0 # cp
    229      1   1 -0.100000     6.634120000    14.175400000    35.204900000   0   0   0 # cp
    230      1   1 -0.100000     5.284760000    14.257000000    35.165100000   0   0   0 # cp
    231      1   1  0.000000     4.569750000    14.254200000    36.360200000   0   0   0 # cp
    232      1   1 -0.100000     5.214910000    14.121600000    37.563000000   0   0   0 # cp
    233      1   3  0.000000     8.900960000    14.022700000    36.392300000   0   0   0 # c
    234      1   1  0.000000     8.979980000    12.442100000    36.131900000   0   0   0 # cp
    235      1   1 -0.100000     8.943630000    11.935700000    34.837500000   0   0   0 # cp
    236      1   1 -0.100000     8.723390000    10.625400000    34.595100000   0   0   0 # cp
    237      1   1  0.000000     8.550720000     9.762430000    35.638000000   0   0   0 # cp
    238      1   1 -0.100000     8.620760000    10.200000000    36.931000000   0   0   0 # cp
    239      1   1 -0.100000     8.826920000    11.551500000    37.189000000   0   0   0 # cp
    240      1   1 -0.100000     9.225610000    16.127100000    34.882200000   0   0   0 # cp
    241      1   1 -0.100000     9.990390000    16.934300000    34.101700000   0   0   0 # cp
    242      1   1  0.000000    11.306500000    16.638600000    33.851800000   0   0   0 # cp
    243      1   1 -0.100000    11.721200000    15.330000000    34.141300000   0   0   0 # cp
    244      1   1 -0.100000    10.956600000    14.489200000    34.876600000   0   0   0 # cp
    245      1   1  0.000000     9.689870000    14.869400000    35.296500000   0   0   0 # cp
    246      1   3  0.000000    12.388300000    17.702100000    33.325000000   0   0   0 # c
    247      1   1  0.000000    12.936200000    16.029400000    29.312900000   0   0   0 # cp
    248      1   1 -0.100000    11.811600000    16.771100000    29.626100000   0   0   0 # cp
    249      1   1 -0.100000    11.661300000    17.276000000    30.891000000   0   0   0 # cp
    250      1   1  0.000000    12.640800000    17.120300000    31.852700000   0   0   0 # cp
    251      1   1 -0.100000    13.716800000    16.326900000    31.520200000   0   0   0 # cp
    252      1   1 -0.100000    13.894300000    15.772000000    30.275300000   0   0   0 # cp
    253      1   1  0.000000    13.658800000    17.751400000    34.312600000   0   0   0 # cp
    254      1   1 -0.100000    14.919700000    18.223800000    33.918200000   0   0   0 # cp
    255      1   1 -0.100000    16.002700000    18.070000000    34.725200000   0   0   0 # cp
    256      1   1  0.000000    15.849800000    17.527700000    35.984700000   0   0   0 # cp
    257      1   1 -0.100000    14.597000000    17.251200000    36.459100000   0   0   0 # cp
    258      1   1 -0.100000    13.503800000    17.384000000    35.644700000   0   0   0 # cp
    259      1   1 -0.100000    12.323500000    20.100900000    32.362000000   0   0   0 # cp
    260      1   1 -0.100000    12.045800000    21.441300000    32.405200000   0   0   0 # cp
    261      1   1  0.000000    11.408634779    21.968919625    33.491200000   0   0   0 # cp
    262      1   1 -0.100000    11.090000000    21.153600000    34.545100000   0   0   0 # cp
    263      1   1 -0.100000    11.382200000    19.810700000    34.479600000   0   0   0 # cp
    264      1   1  0.000000    11.982800000    19.229700000    33.379200000   0   0   0 # cp
    265      1   2  0.100000     7.049420000    13.980700000    38.543800000   0   0   0 # h
    266      1   2  0.100000     7.187140000    14.078800000    34.264000000   0   0   0 # h
    267      1   2  0.100000     4.775280000    14.208100000    34.223000000   0   0   0 # h
    268      1   2  0.100000     4.646910000    14.001700000    38.480600000   0   0   0 # h
    269      1   2  0.100000     9.026360000    12.616100000    33.989700000   0   0   0 # h
    270      1   2  0.100000     8.622370000    10.285200000    33.538000000   0   0   0 # h
    271      1   2  0.100000     8.501030000     9.524880000    37.802900000   0   0   0 # h
    272      1   2  0.100000     8.748760000    11.916000000    38.217500000   0   0   0 # h
    273      1   2  0.100000     8.256650000    16.463000000    35.146700000   0   0   0 # h
    274      1   2  0.100000     9.590850000    17.864600000    33.794200000   0   0   0 # h
    275      1   2  0.100000    12.720000000    15.020600000    33.942500000   0   0   0 # h
    276      1   2  0.100000    11.356400000    13.553100000    35.215000000   0   0   0 # h
    277      1   2  0.100000    11.040900000    17.008100000    28.886800000   0   0   0 # h
    278      1   2  0.100000    10.767800000    17.834200000    31.078100000   0   0   0 # h
    279      1   2  0.100000    14.468300000    16.103800000    32.236500000   0   0   0 # h
    280      1   2  0.100000    14.733200000    15.094900000    30.118700000   0   0   0 # h
    281      1   2  0.100000    15.045900000    18.606300000    32.906900000   0   0   0 # h
    282      1   2  0.100000    16.999000000    18.309200000    34.349600000   0   0   0 # h
    283      1   2  0.100000    14.410600000    16.833300000    37.415100000   0   0   0 # h
    284      1   2  0.100000    12.552800000    17.202000000    36.089400000   0   0   0 # h
    285      1   2  0.100000    12.855000000    19.734500000    31.482300000   0   0   0 # h
    286      1   2  0.100000    12.375634779    22.069919625    31.572100000   0   0   0 # h
    287      1   2  0.100000    10.525734779    21.556989625    35.393200000   0   0   0 # h
    288      1   2  0.100000    11.166100000    19.206600000    35.376900000   0   0   0 # h
    289      1   1  0.000000    -7.871050000    22.973400000     4.102560000   0   0   0 # cp
    290      1   1 -0.100000    -8.711490000    23.883800000     4.706440000   0   0   0 # cp
    291      1   1 -0.100000    -8.852470000    23.933000000     6.063160000   0   0   0 # cp
    292      1   1  0.000000    -8.178420000    23.013100000     6.846890000   0   0   0 # cp
    293      1   1 -0.100000    -7.159330000    22.258100000     6.240590000   0   0   0 # cp
    294      1   1 -0.100000    -7.004750000    22.262600000     4.886220000   0   0   0 # cp
    295      1   2  0.100000    -9.405440000    24.440200000     4.089240000   0   0   0 # h
    296      1   2  0.100000    -9.585805221    24.643792625     6.474880000   0   0   0 # h
    297      1   2  0.100000    -6.544390000    21.604600000     6.810080000   0   0   0 # h
    298      1   2  0.100000    -6.301580000    21.553500000     4.436640000   0   0   0 # h
    299      1   1 -0.100000    -8.946370000    20.241400000     8.078260000   0   0   0 # cp