       N       E                     dE             d eps       ncg     rms          rms(c)
DAV:   1    -0.108003249916E+01   -0.10800E+01   -0.28452E+02    24   0.635E+01
DAV:   2    -0.733384332271E+01   -0.62538E+01   -0.62538E+01    16   0.270E+01
DAV:   3    -0.747712630541E+01   -0.14328E+00   -0.14328E+00    24   0.596E+00
DAV:   4    -0.747721705812E+01   -0.90753E-04   -0.90753E-04    32   0.149E-01
DAV:   5    -0.747721706040E+01   -0.22825E-08   -0.22825E-08    16   0.851E-04    0.456E+00
RMM:   6    -0.701676290877E+01    0.46045E+00   -0.17855E-01    16   0.132E+00    0.253E+00
RMM:   7    -0.676255666846E+01    0.25421E+00   -0.52315E-01    16   0.238E+00    0.329E-01
RMM:   8    -0.677118686827E+01   -0.86302E-02   -0.17700E-02    16   0.553E-01    0.344E-01
RMM:   9    -0.676348345716E+01    0.77034E-02   -0.90581E-03    16   0.359E-01    0.563E-02
RMM:  10    -0.676600807163E+01   -0.25246E-02   -0.29072E-03    16   0.204E-01    0.340E-02
RMM:  11    -0.676675450189E+01   -0.74643E-03   -0.59035E-04    16   0.902E-02    0.370E-02
RMM:  12    -0.676803997551E+01   -0.12855E-02   -0.26004E-04    16   0.528E-02    0.722E-03
RMM:  13    -0.676864665099E+01   -0.60668E-03   -0.81803E-05    16   0.267E-02    0.110E-02
RMM:  14    -0.676906674542E+01   -0.42009E-03   -0.79111E-05    16   0.234E-02    0.145E-02
RMM:  15    -0.676907849823E+01   -0.11753E-04   -0.54064E-06    16   0.746E-03    0.442E-03
RMM:  16    -0.676914348062E+01   -0.64982E-04   -0.74533E-06    16   0.830E-03    0.440E-03
RMM:  17    -0.676915215051E+01   -0.86699E-05   -0.68473E-07    16   0.265E-03    0.194E-03
RMM:  18    -0.676916232376E+01   -0.10173E-04   -0.50511E-07    15   0.200E-03    0.239E-04
RMM:  19    -0.676916392540E+01   -0.16016E-05   -0.78046E-08    15   0.101E-03    0.656E-04
RMM:  20    -0.676916576573E+01   -0.18403E-05   -0.34249E-08    15   0.516E-04    0.829E-05
RMM:  21    -0.676916597780E+01   -0.21207E-06    0.00000E+00    14   0.242E-04
   1 F= -.67691660E+01 E0= -.67691660E+01  d E =-.676917E+01
       N       E                     dE             d eps       ncg     rms          rms(c)
DAV:   1    -0.676221857425E+01    0.69472E-02   -0.38296E-01    16   0.292E+00    0.302E-01
RMM:   2    -0.676086843653E+01    0.13501E-02   -0.17654E-03    16   0.197E-01    0.168E-01
RMM:   3    -0.676038701452E+01    0.48142E-03   -0.21164E-03    16   0.141E-01    0.136E-02
RMM:   4    -0.676043089351E+01   -0.43879E-04   -0.98026E-05    16   0.448E-02    0.559E-03
RMM:   5    -0.676044580955E+01   -0.14916E-04   -0.11114E-05    16   0.167E-02    0.128E-03
RMM:   6    -0.676044993556E+01   -0.41260E-05   -0.20789E-06    16   0.611E-03    0.120E-03
RMM:   7    -0.676045427222E+01   -0.43367E-05   -0.94299E-07    16   0.315E-03    0.492E-04
RMM:   8    -0.676045597155E+01   -0.16993E-05   -0.11250E-07    15   0.107E-03    0.245E-04
RMM:   9    -0.676045712109E+01   -0.11495E-05   -0.18047E-07    15   0.989E-04    0.217E-04
RMM:  10    -0.676045794074E+01   -0.81965E-06   -0.83425E-08    15   0.720E-04
   2 F= -.67604579E+01 E0= -.67604579E+01  d E =0.870804E-02
       N       E                     dE             d eps       ncg     rms          rms(c)
DAV:   1    -0.677194369330E+01   -0.11487E-01   -0.18998E-01    16   0.204E+00    0.210E-01
RMM:   2    -0.677128771024E+01    0.65598E-03   -0.87727E-04    16   0.144E-01    0.119E-01
RMM:   3    -0.677104018348E+01    0.24753E-03   -0.11093E-03    16   0.101E-01    0.109E-02
RMM:   4    -0.677105286984E+01   -0.12686E-04   -0.50931E-05    16   0.311E-02    0.510E-03
RMM:   5    -0.677106231747E+01   -0.94476E-05   -0.33126E-06    16   0.101E-02    0.222E-03
RMM:   6    -0.677106542704E+01   -0.31096E-05   -0.12673E-06    16   0.445E-03    0.689E-04
RMM:   7    -0.677107404975E+01   -0.86227E-05   -0.56359E-07    15   0.213E-03    0.346E-04
RMM:   8    -0.677107607214E+01   -0.20224E-05   -0.47759E-08    15   0.692E-04    0.276E-04
RMM:   9    -0.677108127154E+01   -0.51994E-05   -0.19287E-07    15   0.106E-03    0.168E-04
RMM:  10    -0.677108295710E+01   -0.16856E-05   -0.77159E-08    15   0.658E-04    0.354E-04
RMM:  11    -0.677108383755E+01   -0.88046E-06    0.00000E+00    14   0.281E-04
   3 F= -.67710838E+01 E0= -.67710838E+01  d E =-.191786E-02
