<?xml version="1.0" encoding="ISO-8859-1"?>
<modeling>
 <generator>
  <i name="program" type="string">vasp </i>
  <i name="version" type="string">6.3.2  </i>
  <i name="subversion" type="string">27Jun22 (build Sep  5 2022 18:50:32) complex                          parallel </i>
  <i name="platform" type="string">LinuxNV </i>
  <i name="date" type="string">2023 01 14 </i>
  <i name="time" type="string">18:51:41 </i>
 </generator>
 <incar>
  <i type="string" name="PREC">Accurate   (Precision level: Normal or Accurate, set Accurate when perform structure lattice relaxation calculation)</i>
  <i type="string" name="ALGO">Fast</i>
  <i type="logical" name="ADDGRID"> T  </i>
  <i type="int" name="ICHARG">     2</i>
  <i type="int" name="NELM">   150</i>
  <i type="int" name="NELMIN">     6</i>
  <i type="int" name="IBRION">     2</i>
  <i name="EDIFF">      0.00000100</i>
  <i name="EDIFFG">     -0.01000000</i>
  <i type="int" name="NSW">   100</i>
  <i type="int" name="ISIF">     2</i>
  <i name="ENCUT">    520.00000000</i>
  <i type="logical" name="LREAL"> F  </i>
  <i type="int" name="ISMEAR">    -1</i>
  <i name="SIGMA">      0.05000000</i>
  <i type="logical" name="LWAVE"> T  </i>
  <i type="logical" name="LCHARG"> T  </i>
 </incar>
 <primitive_cell>
  <structure name="primitive_cell" >
   <crystal>
    <varray name="basis" >
     <v>      11.10380000       0.00000000       0.00000000 </v>
     <v>       0.00000000      11.20020000       0.00000000 </v>
     <v>       0.00000000       0.00000000      32.43460000 </v>
    </varray>
    <i name="volume">   4033.72191804 </i>
    <varray name="rec_basis" >
     <v>       0.09005926       0.00000000       0.00000000 </v>
     <v>       0.00000000       0.08928412       0.00000000 </v>
     <v>       0.00000000       0.00000000       0.03083127 </v>
    </varray>
   </crystal>
   <varray name="positions" >
    <v>       0.48908000       0.63249000       0.50492000 </v>
    <v>       0.46959000       0.63219000       0.52673000 </v>
   </varray>
  </structure>
  <varray name="primitive_index" >
   <v type="int" >        1 </v>
   <v type="int" >        2 </v>
  </varray>
 </primitive_cell>
 <kpoints>
  <generation param="Monkhorst-Pack">
   <v type="int" name="divisions">       1        1        1 </v>
   <v name="usershift">      0.00000000       0.00000000       0.00000000 </v>
   <v name="genvec1">      1.00000000       0.00000000       0.00000000 </v>
   <v name="genvec2">      0.00000000       1.00000000       0.00000000 </v>
   <v name="genvec3">      0.00000000       0.00000000       1.00000000 </v>
   <v name="shift">      0.00000000       0.00000000       0.00000000 </v>
  </generation>
  <varray name="kpointlist" >
   <v>       0.00000000       0.00000000       0.00000000 </v>
  </varray>
  <varray name="weights" >
   <v>       1.00000000 </v>
  </varray>
 </kpoints>
 <parameters>
  <separator name="general" >
   <i type="string" name="SYSTEM">unknown system</i>
   <i type="logical" name="LCOMPAT"> F  </i>
  </separator>
  <separator name="electronic" >
   <i type="string" name="PREC">accura</i>
   <i name="ENMAX">    520.00000000</i>
   <i name="ENAUG">    400.00000000</i>
   <i name="EDIFF">      0.00000100</i>
   <i type="int" name="IALGO">    68</i>
   <i type="int" name="IWAVPR">    11</i>
   <i type="int" name="NBANDS">     8</i>
   <i type="int" name="NBANDSLOW">    -1</i>
   <i type="int" name="NBANDSHIGH">    -1</i>
   <i name="NELECT">      2.00000000</i>
   <i type="int" name="TURBO">     0</i>
   <i type="int" name="IRESTART">     0</i>
   <i type="int" name="NREBOOT">     0</i>
   <i type="int" name="NMIN">     0</i>
   <i name="EREF">      0.00000000</i>
   <separator name="electronic smearing" >
    <i type="int" name="ISMEAR">    -1</i>
    <i name="SIGMA">      0.05000000</i>
    <i name="KSPACING">      0.50000000</i>
    <i type="logical" name="KGAMMA"> T  </i>
    <i type="logical" name="KBLOWUP"> T  </i>
   </separator>
   <separator name="electronic projectors" >
    <i type="logical" name="LREAL"> F  </i>
    <v name="ROPT">      0.00000000</v>
    <i type="int" name="LMAXPAW">  -100</i>
    <i type="int" name="LMAXMIX">     2</i>
    <i type="logical" name="NLSPLINE"> F  </i>
   </separator>
   <separator name="electronic startup" >
    <i type="int" name="ISTART">     0</i>
    <i type="int" name="ICHARG">     2</i>
    <i type="int" name="INIWAV">     1</i>
   </separator>
   <separator name="electronic spin" >
    <i type="int" name="ISPIN">     1</i>
    <i type="logical" name="LNONCOLLINEAR"> F  </i>
    <v name="MAGMOM">      1.00000000      1.00000000</v>
    <i name="NUPDOWN">     -1.00000000</i>
    <i type="logical" name="LSORBIT"> F  </i>
    <v name="SAXIS">      0.00000000      0.00000000      1.00000000</v>
    <i type="logical" name="LSPIRAL"> F  </i>
    <v name="QSPIRAL">      0.00000000      0.00000000      0.00000000</v>
    <i type="logical" name="LZEROZ"> F  </i>
   </separator>
   <separator name="electronic exchange-correlation" >
    <i type="logical" name="LASPH"> F  </i>
    <i type="logical" name="LMETAGGA"> F  </i>
   </separator>
   <separator name="electronic convergence" >
    <i type="int" name="NELM">   150</i>
    <i type="int" name="NELMDL">    -5</i>
    <i type="int" name="NELMIN">     6</i>
    <i name="ENINI">    520.00000000</i>
    <separator name="electronic convergence detail" >
     <i type="logical" name="LDIAG"> T  </i>
     <i type="logical" name="LSUBROT"> F  </i>
     <i name="WEIMIN">      0.00100000</i>
     <i name="EBREAK">      0.00000003</i>
     <i name="DEPER">      0.30000000</i>
     <i type="int" name="NRMM">     4</i>
     <i name="TIME">      0.40000000</i>
    </separator>
   </separator>
   <separator name="electronic mixer" >
    <i name="AMIX">      0.40000000</i>
    <i name="BMIX">      1.00000000</i>
    <i name="AMIN">      0.10000000</i>
    <i name="AMIX_MAG">      1.60000000</i>
    <i name="BMIX_MAG">      1.00000000</i>
    <separator name="electronic mixer details" >
     <i type="int" name="IMIX">     4</i>
     <i type="logical" name="MIXFIRST"> F  </i>
     <i type="int" name="MAXMIX">   -45</i>
     <i name="WC">    100.00000000</i>
     <i type="int" name="INIMIX">     1</i>
     <i type="int" name="MIXPRE">     1</i>
     <i type="int" name="MREMOVE">     5</i>
    </separator>
   </separator>
   <separator name="electronic dipolcorrection" >
    <i type="logical" name="LDIPOL"> F  </i>
    <i type="logical" name="LMONO"> F  </i>
    <i type="int" name="IDIPOL">     0</i>
    <i name="EPSILON">      1.00000000</i>
    <v name="DIPOL">   -100.00000000   -100.00000000   -100.00000000</v>
    <i name="EFIELD">      0.00000000</i>
   </separator>
  </separator>
  <separator name="grids" >
   <i type="int" name="NGX">    84</i>
   <i type="int" name="NGY">    84</i>
   <i type="int" name="NGZ">   250</i>
   <i type="int" name="NGXF">   168</i>
   <i type="int" name="NGYF">   168</i>
   <i type="int" name="NGZF">   500</i>
   <i type="logical" name="ADDGRID"> T  </i>
  </separator>
  <separator name="ionic" >
   <i type="int" name="NSW">   100</i>
   <i type="int" name="IBRION">     2</i>
   <i type="int" name="MDALGO">     0</i>
   <i type="int" name="ISIF">     2</i>
   <i name="PSTRESS">      0.00000000</i>
   <i name="EDIFFG">     -0.01000000</i>
   <i type="int" name="NFREE">     1</i>
   <i name="POTIM">      0.50000000</i>
   <i name="SMASS">     -3.00000000</i>
   <i name="SCALEE">      1.00000000</i>
  </separator>
  <separator name="ionic md" >
   <i name="TEBEG">      0.00010000</i>
   <i name="TEEND">      0.00010000</i>
   <i type="int" name="NBLOCK">     1</i>
   <i type="int" name="KBLOCK">   100</i>
   <i type="int" name="NPACO">   256</i>
   <i name="APACO">     10.00000000</i>
  </separator>
  <separator name="symmetry" >
   <i type="int" name="ISYM">     2</i>
   <i name="SYMPREC">      0.00001000</i>
  </separator>
  <separator name="dos" >
   <i type="int" name="LORBIT">     0</i>
   <v name="RWIGS">     -1.00000000</v>
   <i type="int" name="NEDOS">   301</i>
   <i name="EMIN">     10.00000000</i>
   <i name="EMAX">    -10.00000000</i>
   <i name="EFERMI">      0.00000000</i>
  </separator>
  <separator name="writing" >
   <i type="int" name="NWRITE">     2</i>
   <i type="logical" name="LWAVE"> T  </i>
   <i type="logical" name="LDOWNSAMPLE"> F  </i>
   <i type="logical" name="LCHARG"> T  </i>
   <i type="logical" name="LPARD"> F  </i>
   <i type="logical" name="LVTOT"> F  </i>
   <i type="logical" name="LVHAR"> F  </i>
   <i type="logical" name="LELF"> F  </i>
   <i type="logical" name="LOPTICS"> F  </i>
   <v name="STM">      0.00000000      0.00000000      0.00000000      0.00000000      0.00000000      0.00000000      0.00000000</v>
  </separator>
  <separator name="performance" >
   <i type="int" name="NPAR">     4</i>
   <i type="int" name="NSIM">     4</i>
   <i type="int" name="NBLK">    -1</i>
   <i type="logical" name="LPLANE"> T  </i>
   <i type="logical" name="LSCALAPACK"> F  </i>
   <i type="logical" name="LSCAAWARE"> F  </i>
   <i type="logical" name="LSCALU"> F  </i>
   <i type="logical" name="LASYNC"> F  </i>
   <i type="logical" name="LORBITALREAL"> F  </i>
  </separator>
  <separator name="miscellaneous" >
   <i type="int" name="IDIOT">     3</i>
   <i type="int" name="PHON_NSTRUCT">    -1</i>
   <i type="logical" name="LMUSIC"> F  </i>
   <v name="POMASS">      1.00000000</v>
   <v name="DARWINR">      0.00000000</v>
   <v name="DARWINV">      1.00000000</v>
   <i type="logical" name="LCORR"> T  </i>
  </separator>
  <i type="logical" name="GGA_COMPAT"> T  </i>
  <i type="logical" name="LBERRY"> F  </i>
  <i type="int" name="ICORELEVEL">     0</i>
  <i type="logical" name="LDAU"> F  </i>
  <i type="int" name="I_CONSTRAINED_M">     0</i>
  <separator name="electronic exchange-correlation" >
   <i type="string" name="GGA">--</i>
   <i type="int" name="VOSKOWN">     0</i>
   <i type="logical" name="LHFCALC"> F  </i>
   <i type="string" name="PRECFOCK"></i>
   <i type="logical" name="LSYMGRAD"> F  </i>
   <i type="logical" name="LHFONE"> F  </i>
   <i type="logical" name="LRHFCALC"> F  </i>
   <i type="logical" name="LTHOMAS"> F  </i>
   <i type="logical" name="LMODELHF"> F  </i>
   <i type="logical" name="LFOCKACE"> F  </i>
   <i name="ENCUT4O">     -1.00000000</i>
   <i type="int" name="EXXOEP">     0</i>
   <i type="int" name="FOURORBIT">     0</i>
   <i name="AEXX">      0.00000000</i>
   <i name="HFALPHA">      0.00000000</i>
   <i name="MCALPHA">      0.00000000</i>
   <i name="ALDAX">      1.00000000</i>
   <i name="AGGAX">      1.00000000</i>
   <i name="ALDAC">      1.00000000</i>
   <i name="AGGAC">      1.00000000</i>
   <i type="int" name="NKREDX">     1</i>
   <i type="int" name="NKREDY">     1</i>
   <i type="int" name="NKREDZ">     1</i>
   <i type="logical" name="SHIFTRED"> F  </i>
   <i type="logical" name="ODDONLY"> F  </i>
   <i type="logical" name="EVENONLY"> F  </i>
   <i type="int" name="LMAXFOCK">     0</i>
   <i type="int" name="NMAXFOCKAE">     0</i>
   <i type="logical" name="LFOCKAEDFT"> F  </i>
   <i name="HFSCREEN">      0.00000000</i>
   <i name="HFSCREENC">      0.00000000</i>
   <i type="int" name="NBANDSGWLOW">     0</i>
  </separator>
  <separator name="vdW DFT" >
   <i type="logical" name="LUSE_VDW"> F  </i>
   <i name="Zab_VDW">     -0.84910000</i>
   <i name="PARAM1">      0.12340000</i>
   <i name="PARAM2">      1.00000000</i>
   <i name="PARAM3">      0.00000000</i>
  </separator>
  <separator name="model GW" >
   <i type="int" name="MODEL_GW">     0</i>
   <i name="MODEL_EPS0">   1210.11657541</i>
   <i name="MODEL_ALPHA">      1.00000000</i>
  </separator>
  <separator name="linear response parameters" >
   <i type="logical" name="LEPSILON"> F  </i>
   <i type="logical" name="LRPA"> F  </i>
   <i type="logical" name="LNABLA"> F  </i>
   <i type="logical" name="LVEL"> F  </i>
   <i name="CSHIFT">      0.10000000</i>
   <i name="OMEGAMAX">     -1.00000000</i>
   <i name="DEG_THRESHOLD">      0.00200000</i>
   <i name="RTIME">     -0.10000000</i>
   <i name="WPLASMAI">      0.00000000</i>
   <v name="DFIELD">      0.00000000      0.00000000      0.00000000</v>
   <v name="WPLASMA">      0.00000000      0.00000000      0.00000000      0.00000000      0.00000000      0.00000000      0.00000000      0.00000000      0.00000000</v>
  </separator>
  <separator name="orbital magnetization" >
   <i type="logical" name="NUCIND"> F  </i>
   <v name="MAGPOS">      0.00000000      0.00000000      0.00000000</v>
   <i type="logical" name="LNICSALL"> T  </i>
   <i type="logical" name="ORBITALMAG"> F  </i>
   <i type="logical" name="LMAGBLOCH"> F  </i>
   <i type="logical" name="LCHIMAG"> F  </i>
   <i type="logical" name="LGAUGE"> T  </i>
   <i type="int" name="MAGATOM">     0</i>
   <v name="MAGDIPOL">      0.00000000      0.00000000      0.00000000</v>
   <v name="AVECCONST">      0.00000000      0.00000000      0.00000000</v>
  </separator>
  <separator name="response functions" >
   <i type="logical" name="LFINITE_TEMPERATURE"> F  </i>
   <i type="logical" name="LADDER"> F  </i>
   <i type="logical" name="LRPAFORCE"> F  </i>
   <i type="logical" name="LFXC"> F  </i>
   <i type="logical" name="LHARTREE"> T  </i>
   <i type="int" name="IBSE">     0</i>
   <v type="int" name="KPOINT">    -1     0     0     0</v>
   <i type="logical" name="LTCTC"> F  </i>
   <i type="logical" name="LTCTE"> F  </i>
   <i type="logical" name="LTETE"> F  </i>
   <i type="logical" name="LTRIPLET"> F  </i>
   <i type="logical" name="LFXCEPS"> F  </i>
   <i type="logical" name="LFXHEG"> F  </i>
   <i type="int" name="NATURALO">     2</i>
   <i type="logical" name="LHOLEGF"> F  </i>
   <i type="logical" name="L2ORDER"> F  </i>
   <i type="logical" name="LDMP1"> F  </i>
   <i type="logical" name="LMP2LT"> F  </i>
   <i type="logical" name="LSMP2LT"> F  </i>
   <i type="logical" name="LGWLF"> F  </i>
   <i name="ENCUTGW">     -2.00000000</i>
   <i name="ENCUTGWSOFT">     -2.00000000</i>
   <i name="ENCUTLF">     -1.00000000</i>
   <i type="logical" name="LESF_SPLINES"> F  </i>
   <i type="int" name="LMAXMP2">    -1</i>
   <i name="SCISSOR">      0.00000000</i>
   <i type="int" name="NOMEGA">     0</i>
   <i type="int" name="NOMEGAR">     0</i>
   <i type="int" name="NBANDSGW">    -1</i>
   <i type="int" name="NBANDSO">    -1</i>
   <i type="int" name="NBANDSV">    -1</i>
   <i type="int" name="NELMGW">     1</i>
   <i type="int" name="NELMHF">     1</i>
   <i type="int" name="DIM">     3</i>
   <i type="int" name="IESPILON">     4</i>
   <i type="int" name="ANTIRES">     0</i>
   <i name="OMEGAMAX">    -30.00000000</i>
   <i name="OMEGAMIN">    -30.00000000</i>
   <i name="OMEGATL">   -200.00000000</i>
   <i type="int" name="OMEGAGRID">     0</i>
   <i name="CSHIFT">     -0.10000000</i>
   <i type="logical" name="LSELFENERGY"> F  </i>
   <i type="logical" name="LSPECTRAL"> F  </i>
   <i type="logical" name="LSPECTRALGW"> F  </i>
   <i type="logical" name="LSINGLES"> F  </i>
   <i type="logical" name="LFERMIGW"> F  </i>
   <i type="logical" name="ODDONLYGW"> F  </i>
   <i type="logical" name="EVENONLYGW"> F  </i>
   <i type="int" name="NKREDLFX">     1</i>
   <i type="int" name="NKREDLFY">     1</i>
   <i type="int" name="NKREDLFZ">     1</i>
   <i type="int" name="MAXMEM">  2800</i>
   <i type="int" name="TELESCOPE">     0</i>
   <i type="int" name="NTAUPAR">    -1</i>
   <i type="int" name="NOMEGAPAR">    -1</i>
   <i name="DAMP_NEWTON">      0.80000001</i>
   <i name="LAMBDA">      1.00000000</i>
  </separator>
  <separator name="External order field" >
   <i name="OFIELD_KAPPA">      0.00000000</i>
   <v name="OFIELD_K">      0.00000000      0.00000000      0.00000000</v>
   <i name="OFIELD_Q6_NEAR">      0.00000000</i>
   <i name="OFIELD_Q6_FAR">      0.00000000</i>
   <i name="OFIELD_A">      0.00000000</i>
  </separator>
  <separator name="optional k-points parameters" >
   <i type="int" name="KPOINTS_OPT_MODE">     1</i>
   <i type="logical" name="LKPOINTS_OPT"> F  </i>
  </separator>
 </parameters>
 <atominfo>
  <atoms>       2 </atoms>
  <types>       1 </types>
  <array name="atoms" >
   <dimension dim="1">ion</dimension>
   <field type="string">element</field>
   <field type="int">atomtype</field>
   <set>
    <rc><c>H </c><c>   1</c></rc>
    <rc><c>H </c><c>   1</c></rc>
   </set>
  </array>
  <array name="atomtypes" >
   <dimension dim="1">type</dimension>
   <field type="int">atomspertype</field>
   <field type="string">element</field>
   <field>mass</field>
   <field>valence</field>
   <field type="string">pseudopotential</field>
   <set>
    <rc><c>   2</c><c>H </c><c>      1.00000000</c><c>      1.00000000</c><c>  PAW_PBE H 15Jun2001                   </c></rc>
   </set>
  </array>
 </atominfo>
 <structure name="initialpos" >
  <crystal>
   <varray name="basis" >
    <v>      11.10380000       0.00000000       0.00000000 </v>
    <v>       0.00000000      11.20020000       0.00000000 </v>
    <v>       0.00000000       0.00000000      32.43460000 </v>
   </varray>
   <i name="volume">   4033.72191804 </i>
   <varray name="rec_basis" >
    <v>       0.09005926       0.00000000       0.00000000 </v>
    <v>       0.00000000       0.08928412       0.00000000 </v>
    <v>       0.00000000       0.00000000       0.03083127 </v>
   </varray>
  </crystal>
  <varray name="positions" >
   <v>       0.48908000       0.63249000       0.50492000 </v>
   <v>       0.46959000       0.63219000       0.52673000 </v>
  </varray>
 </structure>
 <calculation>
  <scstep>
   <time name="dav">    0.08    0.06</time>
   <time name="total">    1.05    0.97</time>
   <energy>
    <i name="alphaZ">      0.00241580 </i>
    <i name="ewald">     17.24738773 </i>
    <i name="hartreedc">    -26.52773826 </i>
    <i name="XCdc">      4.35663975 </i>
    <i name="pawpsdc">      4.26805487 </i>
    <i name="pawaedc">     -4.28581044 </i>
    <i name="eentropy">     -0.00000000 </i>
    <i name="bandstr">    -21.11492372 </i>
    <i name="atom">     24.97394176 </i>
    <i name="e_fr_energy">     -1.08003250 </i>
    <i name="e_wo_entrp">     -1.08003250 </i>
    <i name="e_0_energy">     -1.08003250 </i>
   </energy>
  </scstep>
  <scstep>
   <time name="dav">    0.02    0.02</time>
   <time name="total">    0.02    0.02</time>
   <energy>
    <i name="e_fr_energy">     -7.33384332 </i>
    <i name="e_wo_entrp">     -7.33384332 </i>
    <i name="e_0_energy">     -7.33384332 </i>
   </energy>
  </scstep>
  <scstep>
   <time name="dav">    0.03    0.03</time>
   <time name="total">    0.03    0.03</time>
   <energy>
    <i name="e_fr_energy">     -7.47712631 </i>
    <i name="e_wo_entrp">     -7.47712631 </i>
    <i name="e_0_energy">     -7.47712631 </i>
   </energy>
  </scstep>
  <scstep>
   <time name="dav">    0.03    0.03</time>
   <time name="total">    0.03    0.03</time>
   <energy>
    <i name="e_fr_energy">     -7.47721706 </i>
    <i name="e_wo_entrp">     -7.47721706 </i>
    <i name="e_0_energy">     -7.47721706 </i>
   </energy>
  </scstep>
  <scstep>
   <time name="dav">    0.02    0.02</time>
   <time name="total">    1.25    0.92</time>
   <energy>
    <i name="e_fr_energy">     -7.47721706 </i>
    <i name="e_wo_entrp">     -7.47721706 </i>
    <i name="e_0_energy">     -7.47721706 </i>
   </energy>
  </scstep>
  <scstep>
   <time name="diag">    0.02    0.01</time>
   <time name="diis">    0.01    0.02</time>
   <time name="orth">    0.00    0.00</time>
   <time name="total">    2.10    1.73</time>
   <energy>
    <i name="e_fr_energy">     -7.01676291 </i>
    <i name="e_wo_entrp">     -7.01676291 </i>
    <i name="e_0_energy">     -7.01676291 </i>
   </energy>
  </scstep>
  <scstep>
   <time name="diag">    0.04    0.01</time>
   <time name="diis">    0.01    0.01</time>
   <time name="orth">    0.00    0.00</time>
   <time name="total">    2.08    1.72</time>
   <energy>
    <i name="e_fr_energy">     -6.76255667 </i>
    <i name="e_wo_entrp">     -6.76255667 </i>
    <i name="e_0_energy">     -6.76255667 </i>
   </energy>
  </scstep>
  <scstep>
   <time name="diag">    0.04    0.01</time>
   <time name="diis">    0.01    0.01</time>
   <time name="orth">    0.00    0.00</time>
   <time name="total">    2.07    1.72</time>
   <energy>
    <i name="e_fr_energy">     -6.77118687 </i>
    <i name="e_wo_entrp">     -6.77118687 </i>
    <i name="e_0_energy">     -6.77118687 </i>
   </energy>
  </scstep>
  <scstep>
   <time name="diag">    0.03    0.01</time>
   <time name="diis">    0.01    0.01</time>
   <time name="orth">    0.00    0.00</time>
   <time name="total">    2.15    1.73</time>
   <energy>
    <i name="e_fr_energy">     -6.76348346 </i>
    <i name="e_wo_entrp">     -6.76348346 </i>
    <i name="e_0_energy">     -6.76348346 </i>
   </energy>
  </scstep>
  <scstep>
   <time name="diag">    0.03    0.01</time>
   <time name="diis">    0.01    0.01</time>
   <time name="orth">    0.00    0.00</time>
   <time name="total">    2.07    1.72</time>
   <energy>
    <i name="e_fr_energy">     -6.76600807 </i>
    <i name="e_wo_entrp">     -6.76600807 </i>
    <i name="e_0_energy">     -6.76600807 </i>
   </energy>
  </scstep>
  <scstep>
   <time name="diag">    0.02    0.01</time>
   <time name="diis">    0.01    0.01</time>
   <time name="orth">    0.00    0.00</time>
   <time name="total">    2.10    1.73</time>
   <energy>
    <i name="e_fr_energy">     -6.76675450 </i>
    <i name="e_wo_entrp">     -6.76675450 </i>
    <i name="e_0_energy">     -6.76675450 </i>
   </energy>
  </scstep>
  <scstep>
   <time name="diag">    0.03    0.01</time>
   <time name="diis">    0.01    0.01</time>
   <time name="orth">    0.00    0.00</time>
   <time name="total">    2.10    1.78</time>
   <energy>
    <i name="e_fr_energy">     -6.76803998 </i>
    <i name="e_wo_entrp">     -6.76803998 </i>
    <i name="e_0_energy">     -6.76803998 </i>
   </energy>
  </scstep>
  <scstep>
   <time name="diag">    0.03    0.01</time>
   <time name="diis">    0.01    0.01</time>
   <time name="orth">    0.00    0.00</time>
   <time name="total">    2.11    1.71</time>
   <energy>
    <i name="e_fr_energy">     -6.76864665 </i>
    <i name="e_wo_entrp">     -6.76864665 </i>
    <i name="e_0_energy">     -6.76864665 </i>
   </energy>
  </scstep>
  <scstep>
   <time name="diag">    0.04    0.01</time>
   <time name="diis">    0.01    0.01</time>
   <time name="orth">    0.00    0.00</time>
   <time name="total">    2.14    1.73</time>
   <energy>
    <i name="e_fr_energy">     -6.76906675 </i>
    <i name="e_wo_entrp">     -6.76906675 </i>
    <i name="e_0_energy">     -6.76906675 </i>
   </energy>
  </scstep>
  <scstep>
   <time name="diag">    0.03    0.01</time>
   <time name="diis">    0.01    0.01</time>
   <time name="orth">    0.00    0.00</time>
   <time name="total">    2.18    1.73</time>
   <energy>
    <i name="e_fr_energy">     -6.76907850 </i>
    <i name="e_wo_entrp">     -6.76907850 </i>
    <i name="e_0_energy">     -6.76907850 </i>
   </energy>
  </scstep>
  <scstep>
   <time name="diag">    0.03    0.01</time>
   <time name="diis">    0.01    0.01</time>
   <time name="orth">    0.00    0.00</time>
   <time name="total">    2.16    1.73</time>
   <energy>
    <i name="e_fr_energy">     -6.76914348 </i>
    <i name="e_wo_entrp">     -6.76914348 </i>
    <i name="e_0_energy">     -6.76914348 </i>
   </energy>
  </scstep>
  <scstep>
   <time name="diag">    0.04    0.01</time>
   <time name="diis">    0.01    0.01</time>
   <time name="orth">    0.00    0.00</time>
   <time name="total">    2.06    1.72</time>
   <energy>
    <i name="e_fr_energy">     -6.76915215 </i>
    <i name="e_wo_entrp">     -6.76915215 </i>
    <i name="e_0_energy">     -6.76915215 </i>
   </energy>
  </scstep>
  <scstep>
   <time name="diag">    0.02    0.01</time>
   <time name="diis">    0.01    0.01</time>
   <time name="orth">    0.00    0.00</time>
   <time name="total">    2.16    1.76</time>
   <energy>
    <i name="e_fr_energy">     -6.76916232 </i>
    <i name="e_wo_entrp">     -6.76916232 </i>
    <i name="e_0_energy">     -6.76916232 </i>
   </energy>
  </scstep>
  <scstep>
   <time name="diag">    0.03    0.01</time>
   <time name="diis">    0.01    0.01</time>
   <time name="orth">    0.00    0.00</time>
   <time name="total">    2.09    1.73</time>
   <energy>
    <i name="e_fr_energy">     -6.76916393 </i>
    <i name="e_wo_entrp">     -6.76916393 </i>
    <i name="e_0_energy">     -6.76916393 </i>
   </energy>
  </scstep>
  <scstep>
   <time name="diag">    0.04    0.01</time>
   <time name="diis">    0.01    0.01</time>
   <time name="orth">    0.00    0.00</time>
   <time name="total">    2.29    1.76</time>
   <energy>
    <i name="e_fr_energy">     -6.76916577 </i>
    <i name="e_wo_entrp">     -6.76916577 </i>
    <i name="e_0_energy">     -6.76916577 </i>
   </energy>
  </scstep>
  <scstep>
   <time name="diag">    0.02    0.01</time>
   <time name="diis">    0.01    0.01</time>
   <time name="orth">    0.00    0.00</time>
   <time name="total">    1.00    0.84</time>
   <energy>
    <i name="alphaZ">      0.00241580 </i>
    <i name="ewald">     17.24738773 </i>
    <i name="hartreedc">    -33.51409103 </i>
    <i name="XCdc">      5.32685270 </i>
    <i name="pawpsdc">     24.12283780 </i>
    <i name="pawaedc">    -24.17377028 </i>
    <i name="eentropy">     -0.00000000 </i>
    <i name="bandstr">    -20.75474047 </i>
    <i name="atom">     24.97394176 </i>
    <i name="e_fr_energy">     -6.76916598 </i>
    <i name="e_wo_entrp">     -6.76916598 </i>
    <i name="e_0_energy">     -6.76916598 </i>
   </energy>
  </scstep>
  <structure>
   <crystal>
    <varray name="basis" >
     <v>      11.10380000       0.00000000       0.00000000 </v>
     <v>       0.00000000      11.20020000       0.00000000 </v>
     <v>       0.00000000       0.00000000      32.43460000 </v>
    </varray>
    <i name="volume">   4033.72191804 </i>
    <varray name="rec_basis" >
     <v>       0.09005926       0.00000000       0.00000000 </v>
     <v>       0.00000000       0.08928412       0.00000000 </v>
     <v>       0.00000000       0.00000000       0.03083127 </v>
    </varray>
   </crystal>
   <varray name="positions" >
    <v>       0.48908000       0.63249000       0.50492000 </v>
    <v>       0.46959000       0.63219000       0.52673000 </v>
   </varray>
  </structure>
  <varray name="forces" >
   <v>       0.10886853       0.00169068      -0.35605779 </v>
   <v>      -0.10886853      -0.00169068       0.35605779 </v>
  </varray>
  <varray name="stress" >
   <v>      -0.00172404       0.00014041      -0.02976001 </v>
   <v>       0.00014041      -0.01086679      -0.00046172 </v>
   <v>      -0.02976001      -0.00046172       0.08637435 </v>
  </varray>
  <energy>
   <i name="e_fr_energy">     -6.76916598 </i>
   <i name="e_wo_entrp">     -6.76916598 </i>
   <i name="e_0_energy">     -6.76916598 </i>
  </energy>
  <time name="totalsc">   65.24   55.40</time>
 </calculation>
 <calculation>
  <scstep>
   <time name="dav">    0.05    0.03</time>
   <time name="total">    2.06    1.72</time>
   <energy>
    <i name="alphaZ">      0.00241580 </i>
    <i name="ewald">     16.34479287 </i>
    <i name="hartreedc">    -33.20703013 </i>
    <i name="XCdc">      5.28932923 </i>
    <i name="pawpsdc">     24.12266039 </i>
    <i name="pawaedc">    -24.17359293 </i>
    <i name="eentropy">     -0.00000000 </i>
    <i name="bandstr">    -20.11473555 </i>
    <i name="atom">     24.97394176 </i>
    <i name="e_fr_energy">     -6.76221857 </i>
    <i name="e_wo_entrp">     -6.76221857 </i>
    <i name="e_0_energy">     -6.76221857 </i>
   </energy>
  </scstep>
  <scstep>
   <time name="diag">    0.03    0.01</time>
   <time name="diis">    0.01    0.01</time>
   <time name="orth">    0.00    0.00</time>
   <time name="total">    2.00    1.70</time>
   <energy>
    <i name="e_fr_energy">     -6.76086844 </i>
    <i name="e_wo_entrp">     -6.76086844 </i>
    <i name="e_0_energy">     -6.76086844 </i>
   </energy>
  </scstep>
  <scstep>
   <time name="diag">    0.02    0.01</time>
   <time name="diis">    0.01    0.01</time>
   <time name="orth">    0.00    0.00</time>
   <time name="total">    2.10    1.72</time>
   <energy>
    <i name="e_fr_energy">     -6.76038701 </i>
    <i name="e_wo_entrp">     -6.76038701 </i>
    <i name="e_0_energy">     -6.76038701 </i>
   </energy>
  </scstep>
  <scstep>
   <time name="diag">    0.04    0.01</time>
   <time name="diis">    0.01    0.01</time>
   <time name="orth">    0.00    0.00</time>
   <time name="total">    2.13    1.71</time>
   <energy>
    <i name="e_fr_energy">     -6.76043089 </i>
    <i name="e_wo_entrp">     -6.76043089 </i>
    <i name="e_0_energy">     -6.76043089 </i>
   </energy>
  </scstep>
  <scstep>
   <time name="diag">    0.02    0.01</time>
   <time name="diis">    0.01    0.01</time>
   <time name="orth">    0.00    0.00</time>
   <time name="total">    2.15    1.71</time>
   <energy>
    <i name="e_fr_energy">     -6.76044581 </i>
    <i name="e_wo_entrp">     -6.76044581 </i>
    <i name="e_0_energy">     -6.76044581 </i>
   </energy>
  </scstep>
  <scstep>
   <time name="diag">    0.01    0.01</time>
   <time name="diis">    0.01    0.01</time>
   <time name="orth">    0.00    0.00</time>
   <time name="total">    2.09    1.71</time>
   <energy>
    <i name="e_fr_energy">     -6.76044994 </i>
    <i name="e_wo_entrp">     -6.76044994 </i>
    <i name="e_0_energy">     -6.76044994 </i>
   </energy>
  </scstep>
  <scstep>
   <time name="diag">    0.02    0.01</time>
   <time name="diis">    0.01    0.01</time>
   <time name="orth">    0.00    0.00</time>
   <time name="total">    2.16    1.72</time>
   <energy>
    <i name="e_fr_energy">     -6.76045427 </i>
    <i name="e_wo_entrp">     -6.76045427 </i>
    <i name="e_0_energy">     -6.76045427 </i>
   </energy>
  </scstep>
  <scstep>
   <time name="diag">    0.03    0.01</time>
   <time name="diis">    0.01    0.01</time>
   <time name="orth">    0.00    0.00</time>
   <time name="total">    2.13    1.71</time>
   <energy>
    <i name="e_fr_energy">     -6.76045597 </i>
    <i name="e_wo_entrp">     -6.76045597 </i>
    <i name="e_0_energy">     -6.76045597 </i>
   </energy>
  </scstep>
  <scstep>
   <time name="diag">    0.03    0.01</time>
   <time name="diis">    0.01    0.01</time>
   <time name="orth">    0.00    0.00</time>
   <time name="total">    2.14    1.72</time>
   <energy>
    <i name="e_fr_energy">     -6.76045712 </i>
    <i name="e_wo_entrp">     -6.76045712 </i>
    <i name="e_0_energy">     -6.76045712 </i>
   </energy>
  </scstep>
  <scstep>
   <time name="diag">    0.03    0.01</time>
   <time name="diis">    0.01    0.01</time>
   <time name="orth">    0.00    0.00</time>
   <time name="total">    0.95    0.83</time>
   <energy>
    <i name="alphaZ">      0.00241580 </i>
    <i name="ewald">     16.34479287 </i>
    <i name="hartreedc">    -32.86312332 </i>
    <i name="XCdc">      5.24144577 </i>
    <i name="pawpsdc">     21.82937319 </i>
    <i name="pawaedc">    -21.87560944 </i>
    <i name="eentropy">     -0.00000000 </i>
    <i name="bandstr">    -20.41369458 </i>
    <i name="atom">     24.97394176 </i>
    <i name="e_fr_energy">     -6.76045794 </i>
    <i name="e_wo_entrp">     -6.76045794 </i>
    <i name="e_0_energy">     -6.76045794 </i>
   </energy>
  </scstep>
  <structure>
   <crystal>
    <varray name="basis" >
     <v>      11.10380000       0.00000000       0.00000000 </v>
     <v>       0.00000000      11.20020000       0.00000000 </v>
     <v>       0.00000000       0.00000000      32.43460000 </v>
    </varray>
    <i name="volume">   4033.72191804 </i>
    <varray name="rec_basis" >
     <v>       0.09005926       0.00000000       0.00000000 </v>
     <v>       0.00000000       0.08928412       0.00000000 </v>
     <v>       0.00000000       0.00000000       0.03083127 </v>
    </varray>
   </crystal>
   <varray name="positions" >
    <v>       0.48955300       0.63249728       0.50439041 </v>
    <v>       0.46911700       0.63218272       0.52725959 </v>
   </varray>
  </structure>
  <varray name="forces" >
   <v>      -0.23730839      -0.00368440       0.77554603 </v>
   <v>       0.23730839       0.00368440      -0.77554603 </v>
  </varray>
  <varray name="stress" >
   <v>      -0.03199167      -0.00033550       0.07043721 </v>
   <v>      -0.00033550      -0.01048018       0.00109386 </v>
   <v>       0.07043721       0.00109386      -0.24077364 </v>
  </varray>
  <energy>
   <i name="e_fr_energy">     -6.76045794 </i>
   <i name="e_wo_entrp">     -6.76045794 </i>
   <i name="e_0_energy">     -6.76045794 </i>
  </energy>
  <time name="totalsc">   43.76   36.79</time>
 </calculation>
 <calculation>
  <scstep>
   <time name="dav">    0.04    0.03</time>
   <time name="total">    2.07    1.71</time>
   <energy>
    <i name="alphaZ">      0.00241580 </i>
    <i name="ewald">     16.97624006 </i>
    <i name="hartreedc">    -33.07852457 </i>
    <i name="XCdc">      5.26779198 </i>
    <i name="pawpsdc">     21.82918552 </i>
    <i name="pawaedc">    -21.87542527 </i>
    <i name="eentropy">     -0.00000000 </i>
    <i name="bandstr">    -20.86756897 </i>
    <i name="atom">     24.97394176 </i>
    <i name="e_fr_energy">     -6.77194369 </i>
    <i name="e_wo_entrp">     -6.77194369 </i>
    <i name="e_0_energy">     -6.77194369 </i>
   </energy>
  </scstep>
  <scstep>
   <time name="diag">    0.04    0.01</time>
   <time name="diis">    0.01    0.01</time>
   <time name="orth">    0.00    0.00</time>
   <time name="total">    2.15    1.71</time>
   <energy>
    <i name="e_fr_energy">     -6.77128771 </i>
    <i name="e_wo_entrp">     -6.77128771 </i>
    <i name="e_0_energy">     -6.77128771 </i>
   </energy>
  </scstep>
  <scstep>
   <time name="diag">    0.01    0.01</time>
   <time name="diis">    0.01    0.01</time>
   <time name="orth">    0.00    0.00</time>
   <time name="total">    2.29    1.75</time>
   <energy>
    <i name="e_fr_energy">     -6.77104018 </i>
    <i name="e_wo_entrp">     -6.77104018 </i>
    <i name="e_0_energy">     -6.77104018 </i>
   </energy>
  </scstep>
  <scstep>
   <time name="diag">    0.02    0.01</time>
   <time name="diis">    0.01    0.01</time>
   <time name="orth">    0.00    0.00</time>
   <time name="total">    2.15    1.73</time>
   <energy>
    <i name="e_fr_energy">     -6.77105287 </i>
    <i name="e_wo_entrp">     -6.77105287 </i>
    <i name="e_0_energy">     -6.77105287 </i>
   </energy>
  </scstep>
  <scstep>
   <time name="diag">    0.03    0.01</time>
   <time name="diis">    0.01    0.01</time>
   <time name="orth">    0.00    0.00</time>
   <time name="total">    2.09    1.73</time>
   <energy>
    <i name="e_fr_energy">     -6.77106232 </i>
    <i name="e_wo_entrp">     -6.77106232 </i>
    <i name="e_0_energy">     -6.77106232 </i>
   </energy>
  </scstep>
  <scstep>
   <time name="diag">    0.02    0.01</time>
   <time name="diis">    0.01    0.01</time>
   <time name="orth">    0.00    0.00</time>
   <time name="total">    2.11    1.74</time>
   <energy>
    <i name="e_fr_energy">     -6.77106543 </i>
    <i name="e_wo_entrp">     -6.77106543 </i>
    <i name="e_0_energy">     -6.77106543 </i>
   </energy>
  </scstep>
  <scstep>
   <time name="diag">    0.03    0.01</time>
   <time name="diis">    0.01    0.01</time>
   <time name="orth">    0.00    0.00</time>
   <time name="total">    2.09    1.74</time>
   <energy>
    <i name="e_fr_energy">     -6.77107405 </i>
    <i name="e_wo_entrp">     -6.77107405 </i>
    <i name="e_0_energy">     -6.77107405 </i>
   </energy>
  </scstep>
  <scstep>
   <time name="diag">    0.02    0.01</time>
   <time name="diis">    0.01    0.01</time>
   <time name="orth">    0.00    0.00</time>
   <time name="total">    2.21    1.74</time>
   <energy>
    <i name="e_fr_energy">     -6.77107607 </i>
    <i name="e_wo_entrp">     -6.77107607 </i>
    <i name="e_0_energy">     -6.77107607 </i>
   </energy>
  </scstep>
  <scstep>
   <time name="diag">    0.02    0.01</time>
   <time name="diis">    0.01    0.01</time>
   <time name="orth">    0.00    0.00</time>
   <time name="total">    2.06    1.73</time>
   <energy>
    <i name="e_fr_energy">     -6.77108127 </i>
    <i name="e_wo_entrp">     -6.77108127 </i>
    <i name="e_0_energy">     -6.77108127 </i>
   </energy>
  </scstep>
  <scstep>
   <time name="diag">    0.02    0.01</time>
   <time name="diis">    0.01    0.01</time>
   <time name="orth">    0.00    0.00</time>
   <time name="total">    2.11    1.73</time>
   <energy>
    <i name="e_fr_energy">     -6.77108296 </i>
    <i name="e_wo_entrp">     -6.77108296 </i>
    <i name="e_0_energy">     -6.77108296 </i>
   </energy>
  </scstep>
  <scstep>
   <time name="diag">    0.04    0.01</time>
   <time name="diis">    0.01    0.01</time>
   <time name="orth">    0.00    0.00</time>
   <time name="total">    0.97    0.85</time>
   <energy>
    <i name="alphaZ">      0.00241580 </i>
    <i name="ewald">     16.97624006 </i>
    <i name="hartreedc">    -33.32244187 </i>
    <i name="XCdc">      5.30167581 </i>
    <i name="pawpsdc">     23.43061530 </i>
    <i name="pawaedc">    -23.48010171 </i>
    <i name="eentropy">     -0.00000000 </i>
    <i name="bandstr">    -20.65342898 </i>
    <i name="atom">     24.97394176 </i>
    <i name="e_fr_energy">     -6.77108384 </i>
    <i name="e_wo_entrp">     -6.77108384 </i>
    <i name="e_0_energy">     -6.77108384 </i>
   </energy>
  </scstep>
  <structure>
   <crystal>
    <varray name="basis" >
     <v>      11.10380000       0.00000000       0.00000000 </v>
     <v>       0.00000000      11.20020000       0.00000000 </v>
     <v>       0.00000000       0.00000000      32.43460000 </v>
    </varray>
    <i name="volume">   4033.72191804 </i>
    <varray name="rec_basis" >
     <v>       0.09005926       0.00000000       0.00000000 </v>
     <v>       0.00000000       0.08928412       0.00000000 </v>
     <v>       0.00000000       0.00000000       0.03083127 </v>
    </varray>
   </crystal>
   <varray name="positions" >
    <v>       0.48921743       0.63249212       0.50476612 </v>
    <v>       0.46945257       0.63218788       0.52688388 </v>
   </varray>
  </structure>
  <varray name="forces" >
   <v>      -0.00013279      -0.00000155       0.00025106 </v>
   <v>       0.00013279       0.00000155      -0.00025106 </v>
  </varray>
  <varray name="stress" >
   <v>      -0.01104443      -0.00000471       0.00078638 </v>
   <v>      -0.00000471      -0.01084145       0.00001253 </v>
   <v>       0.00078638       0.00001253      -0.01344597 </v>
  </varray>
  <energy>
   <i name="e_fr_energy">     -6.77108384 </i>
   <i name="e_wo_entrp">     -6.77108384 </i>
   <i name="e_0_energy">     -6.77108384 </i>
  </energy>
  <time name="totalsc">   46.25   38.74</time>
  <eigenvalues>
   <array>
    <dimension dim="1">band</dimension>
    <dimension dim="2">kpoint</dimension>
    <dimension dim="3">spin</dimension>
    <field>eigene</field>
    <field>occ</field>
    <set>
     <set comment="spin 1">
      <set comment="kpoint 1">
       <r>  -10.3267    1.0000 </r>
       <r>   -0.0867    0.0000 </r>
       <r>    0.0384    0.0000 </r>
       <r>    0.0789    0.0000 </r>
       <r>    0.3046    0.0000 </r>
       <r>    0.5144    0.0000 </r>
       <r>    0.7074    0.0000 </r>
       <r>    0.8358    0.0000 </r>
      </set>
     </set>
    </set>
   </array>
  </eigenvalues>
  <separator name="orbital magnetization" >
   <v name="MAGDIPOLOUT">      0.00000000      0.00000000      0.00000000</v>
  </separator>
  <dos>
   <i name="efermi">     -9.12488196 </i>
   <total>
    <array>
     <dimension dim="1">gridpoints</dimension>
     <dimension dim="2">spin</dimension>
     <field>energy</field>
     <field>total</field>
     <field>integrated</field>
     <set>
      <set comment="spin 1">
       <r>   -10.8848     0.0000     0.0000 </r>
       <r>   -10.8439     0.0000     0.0000 </r>
       <r>   -10.8030     0.0000     0.0000 </r>
       <r>   -10.7621     0.0081     0.0003 </r>
       <r>   -10.7211     0.0102     0.0008 </r>
       <r>   -10.6802     0.0232     0.0017 </r>
       <r>   -10.6393     0.0525     0.0038 </r>
       <r>   -10.5983     0.1187     0.0087 </r>
       <r>   -10.5574     0.2669     0.0196 </r>
       <r>   -10.5165     0.5945     0.0440 </r>
       <r>   -10.4755     1.2953     0.0970 </r>
       <r>   -10.4346     2.6918     0.2072 </r>
       <r>   -10.3937     5.0826     0.4152 </r>
       <r>   -10.3528     8.0649     0.7453 </r>
       <r>   -10.3118     9.8333     1.1477 </r>
       <r>   -10.2709     8.7674     1.5066 </r>
       <r>   -10.2300     5.8878     1.7476 </r>
       <r>   -10.1890     3.2408     1.8802 </r>
       <r>   -10.1481     1.5911     1.9453 </r>
       <r>   -10.1072     0.7374     1.9755 </r>
       <r>   -10.0663     0.3325     1.9891 </r>
       <r>   -10.0253     0.1481     1.9952 </r>
       <r>    -9.9844     0.0656     1.9979 </r>
       <r>    -9.9435     0.0290     1.9991 </r>
       <r>    -9.9025     0.0000     2.0000 </r>
       <r>    -9.8616     0.0000     2.0000 </r>
       <r>    -9.8207     0.0000     2.0000 </r>
       <r>    -9.7798     0.0000     2.0000 </r>
       <r>    -9.7388     0.0000     2.0000 </r>
       <r>    -9.6979     0.0000     2.0000 </r>
       <r>    -9.6570     0.0000     2.0000 </r>
       <r>    -9.6160     0.0000     2.0000 </r>
       <r>    -9.5751     0.0000     2.0000 </r>
       <r>    -9.5342     0.0000     2.0000 </r>
       <r>    -9.4932     0.0000     2.0000 </r>
       <r>    -9.4523     0.0000     2.0000 </r>
       <r>    -9.4114     0.0000     2.0000 </r>
       <r>    -9.3705     0.0000     2.0000 </r>
       <r>    -9.3295     0.0000     2.0000 </r>
       <r>    -9.2886     0.0000     2.0000 </r>
       <r>    -9.2477     0.0000     2.0000 </r>
       <r>    -9.2067     0.0000     2.0000 </r>
       <r>    -9.1658     0.0000     2.0000 </r>
       <r>    -9.1249     0.0000     2.0000 </r>
       <r>    -9.0840     0.0000     2.0000 </r>
       <r>    -9.0430     0.0000     2.0000 </r>
       <r>    -9.0021     0.0000     2.0000 </r>
       <r>    -8.9612     0.0000     2.0000 </r>
       <r>    -8.9202     0.0000     2.0000 </r>
       <r>    -8.8793     0.0000     2.0000 </r>
       <r>    -8.8384     0.0000     2.0000 </r>
       <r>    -8.7974     0.0000     2.0000 </r>
       <r>    -8.7565     0.0000     2.0000 </r>
       <r>    -8.7156     0.0000     2.0000 </r>
       <r>    -8.6747     0.0000     2.0000 </r>
       <r>    -8.6337     0.0000     2.0000 </r>
       <r>    -8.5928     0.0000     2.0000 </r>
       <r>    -8.5519     0.0000     2.0000 </r>
       <r>    -8.5109     0.0000     2.0000 </r>
       <r>    -8.4700     0.0000     2.0000 </r>
       <r>    -8.4291     0.0000     2.0000 </r>
       <r>    -8.3882     0.0000     2.0000 </r>
       <r>    -8.3472     0.0000     2.0000 </r>
       <r>    -8.3063     0.0000     2.0000 </r>
       <r>    -8.2654     0.0000     2.0000 </r>
       <r>    -8.2244     0.0000     2.0000 </r>
       <r>    -8.1835     0.0000     2.0000 </r>
       <r>    -8.1426     0.0000     2.0000 </r>
       <r>    -8.1016     0.0000     2.0000 </r>
       <r>    -8.0607     0.0000     2.0000 </r>
       <r>    -8.0198     0.0000     2.0000 </r>
       <r>    -7.9789     0.0000     2.0000 </r>
       <r>    -7.9379     0.0000     2.0000 </r>
       <r>    -7.8970     0.0000     2.0000 </r>
       <r>    -7.8561     0.0000     2.0000 </r>
       <r>    -7.8151     0.0000     2.0000 </r>
       <r>    -7.7742     0.0000     2.0000 </r>
       <r>    -7.7333     0.0000     2.0000 </r>
       <r>    -7.6924     0.0000     2.0000 </r>
       <r>    -7.6514     0.0000     2.0000 </r>
       <r>    -7.6105     0.0000     2.0000 </r>
       <r>    -7.5696     0.0000     2.0000 </r>
       <r>    -7.5286     0.0000     2.0000 </r>
       <r>    -7.4877     0.0000     2.0000 </r>
       <r>    -7.4468     0.0000     2.0000 </r>
       <r>    -7.4059     0.0000     2.0000 </r>
       <r>    -7.3649     0.0000     2.0000 </r>
       <r>    -7.3240     0.0000     2.0000 </r>
       <r>    -7.2831     0.0000     2.0000 </r>
       <r>    -7.2421     0.0000     2.0000 </r>
       <r>    -7.2012     0.0000     2.0000 </r>
       <r>    -7.1603     0.0000     2.0000 </r>
       <r>    -7.1193     0.0000     2.0000 </r>
       <r>    -7.0784     0.0000     2.0000 </r>
       <r>    -7.0375     0.0000     2.0000 </r>
       <r>    -6.9966     0.0000     2.0000 </r>
       <r>    -6.9556     0.0000     2.0000 </r>
       <r>    -6.9147     0.0000     2.0000 </r>
       <r>    -6.8738     0.0000     2.0000 </r>
       <r>    -6.8328     0.0000     2.0000 </r>
       <r>    -6.7919     0.0000     2.0000 </r>
       <r>    -6.7510     0.0000     2.0000 </r>
       <r>    -6.7101     0.0000     2.0000 </r>
       <r>    -6.6691     0.0000     2.0000 </r>
       <r>    -6.6282     0.0000     2.0000 </r>
       <r>    -6.5873     0.0000     2.0000 </r>
       <r>    -6.5463     0.0000     2.0000 </r>
       <r>    -6.5054     0.0000     2.0000 </r>
       <r>    -6.4645     0.0000     2.0000 </r>
       <r>    -6.4235     0.0000     2.0000 </r>
       <r>    -6.3826     0.0000     2.0000 </r>
       <r>    -6.3417     0.0000     2.0000 </r>
       <r>    -6.3008     0.0000     2.0000 </r>
       <r>    -6.2598     0.0000     2.0000 </r>
       <r>    -6.2189     0.0000     2.0000 </r>
       <r>    -6.1780     0.0000     2.0000 </r>
       <r>    -6.1370     0.0000     2.0000 </r>
       <r>    -6.0961     0.0000     2.0000 </r>
       <r>    -6.0552     0.0000     2.0000 </r>
       <r>    -6.0143     0.0000     2.0000 </r>
       <r>    -5.9733     0.0000     2.0000 </r>
       <r>    -5.9324     0.0000     2.0000 </r>
       <r>    -5.8915     0.0000     2.0000 </r>
       <r>    -5.8505     0.0000     2.0000 </r>
       <r>    -5.8096     0.0000     2.0000 </r>
       <r>    -5.7687     0.0000     2.0000 </r>
       <r>    -5.7278     0.0000     2.0000 </r>
       <r>    -5.6868     0.0000     2.0000 </r>
       <r>    -5.6459     0.0000     2.0000 </r>
       <r>    -5.6050     0.0000     2.0000 </r>
       <r>    -5.5640     0.0000     2.0000 </r>
       <r>    -5.5231     0.0000     2.0000 </r>
       <r>    -5.4822     0.0000     2.0000 </r>
       <r>    -5.4412     0.0000     2.0000 </r>
       <r>    -5.4003     0.0000     2.0000 </r>
       <r>    -5.3594     0.0000     2.0000 </r>
       <r>    -5.3185     0.0000     2.0000 </r>
       <r>    -5.2775     0.0000     2.0000 </r>
       <r>    -5.2366     0.0000     2.0000 </r>
       <r>    -5.1957     0.0000     2.0000 </r>
       <r>    -5.1547     0.0000     2.0000 </r>
       <r>    -5.1138     0.0000     2.0000 </r>
       <r>    -5.0729     0.0000     2.0000 </r>
       <r>    -5.0320     0.0000     2.0000 </r>
       <r>    -4.9910     0.0000     2.0000 </r>
       <r>    -4.9501     0.0000     2.0000 </r>
       <r>    -4.9092     0.0000     2.0000 </r>
       <r>    -4.8682     0.0000     2.0000 </r>
       <r>    -4.8273     0.0000     2.0000 </r>
       <r>    -4.7864     0.0000     2.0000 </r>
       <r>    -4.7454     0.0000     2.0000 </r>
       <r>    -4.7045     0.0000     2.0000 </r>
       <r>    -4.6636     0.0000     2.0000 </r>
       <r>    -4.6227     0.0000     2.0000 </r>
       <r>    -4.5817     0.0000     2.0000 </r>
       <r>    -4.5408     0.0000     2.0000 </r>
       <r>    -4.4999     0.0000     2.0000 </r>
       <r>    -4.4589     0.0000     2.0000 </r>
       <r>    -4.4180     0.0000     2.0000 </r>
       <r>    -4.3771     0.0000     2.0000 </r>
       <r>    -4.3362     0.0000     2.0000 </r>
       <r>    -4.2952     0.0000     2.0000 </r>
       <r>    -4.2543     0.0000     2.0000 </r>
       <r>    -4.2134     0.0000     2.0000 </r>
       <r>    -4.1724     0.0000     2.0000 </r>
       <r>    -4.1315     0.0000     2.0000 </r>
       <r>    -4.0906     0.0000     2.0000 </r>
       <r>    -4.0497     0.0000     2.0000 </r>
       <r>    -4.0087     0.0000     2.0000 </r>
       <r>    -3.9678     0.0000     2.0000 </r>
       <r>    -3.9269     0.0000     2.0000 </r>
       <r>    -3.8859     0.0000     2.0000 </r>
       <r>    -3.8450     0.0000     2.0000 </r>
       <r>    -3.8041     0.0000     2.0000 </r>
       <r>    -3.7631     0.0000     2.0000 </r>
       <r>    -3.7222     0.0000     2.0000 </r>
       <r>    -3.6813     0.0000     2.0000 </r>
       <r>    -3.6404     0.0000     2.0000 </r>
       <r>    -3.5994     0.0000     2.0000 </r>
       <r>    -3.5585     0.0000     2.0000 </r>
       <r>    -3.5176     0.0000     2.0000 </r>
       <r>    -3.4766     0.0000     2.0000 </r>
       <r>    -3.4357     0.0000     2.0000 </r>
       <r>    -3.3948     0.0000     2.0000 </r>
       <r>    -3.3539     0.0000     2.0000 </r>
       <r>    -3.3129     0.0000     2.0000 </r>
       <r>    -3.2720     0.0000     2.0000 </r>
       <r>    -3.2311     0.0000     2.0000 </r>
       <r>    -3.1901     0.0000     2.0000 </r>
       <r>    -3.1492     0.0000     2.0000 </r>
       <r>    -3.1083     0.0000     2.0000 </r>
       <r>    -3.0673     0.0000     2.0000 </r>
       <r>    -3.0264     0.0000     2.0000 </r>
       <r>    -2.9855     0.0000     2.0000 </r>
       <r>    -2.9446     0.0000     2.0000 </r>
       <r>    -2.9036     0.0000     2.0000 </r>
       <r>    -2.8627     0.0000     2.0000 </r>
       <r>    -2.8218     0.0000     2.0000 </r>
       <r>    -2.7808     0.0000     2.0000 </r>
       <r>    -2.7399     0.0000     2.0000 </r>
       <r>    -2.6990     0.0000     2.0000 </r>
       <r>    -2.6581     0.0000     2.0000 </r>
       <r>    -2.6171     0.0000     2.0000 </r>
       <r>    -2.5762     0.0000     2.0000 </r>
       <r>    -2.5353     0.0000     2.0000 </r>
       <r>    -2.4943     0.0000     2.0000 </r>
       <r>    -2.4534     0.0000     2.0000 </r>
       <r>    -2.4125     0.0000     2.0000 </r>
       <r>    -2.3716     0.0000     2.0000 </r>
       <r>    -2.3306     0.0000     2.0000 </r>
       <r>    -2.2897     0.0000     2.0000 </r>
       <r>    -2.2488     0.0000     2.0000 </r>
       <r>    -2.2078     0.0000     2.0000 </r>
       <r>    -2.1669     0.0000     2.0000 </r>
       <r>    -2.1260     0.0000     2.0000 </r>
       <r>    -2.0850     0.0000     2.0000 </r>
       <r>    -2.0441     0.0000     2.0000 </r>
       <r>    -2.0032     0.0000     2.0000 </r>
       <r>    -1.9623     0.0000     2.0000 </r>
       <r>    -1.9213     0.0000     2.0000 </r>
       <r>    -1.8804     0.0000     2.0000 </r>
       <r>    -1.8395     0.0000     2.0000 </r>
       <r>    -1.7985     0.0000     2.0000 </r>
       <r>    -1.7576     0.0000     2.0000 </r>
       <r>    -1.7167     0.0000     2.0000 </r>
       <r>    -1.6758     0.0000     2.0000 </r>
       <r>    -1.6348     0.0000     2.0000 </r>
       <r>    -1.5939     0.0000     2.0000 </r>
       <r>    -1.5530     0.0000     2.0000 </r>
       <r>    -1.5120     0.0000     2.0000 </r>
       <r>    -1.4711     0.0000     2.0000 </r>
       <r>    -1.4302     0.0000     2.0000 </r>
       <r>    -1.3892     0.0000     2.0000 </r>
       <r>    -1.3483     0.0000     2.0000 </r>
       <r>    -1.3074     0.0000     2.0000 </r>
       <r>    -1.2665     0.0000     2.0000 </r>
       <r>    -1.2255     0.0000     2.0000 </r>
       <r>    -1.1846     0.0000     2.0000 </r>
       <r>    -1.1437     0.0000     2.0000 </r>
       <r>    -1.1027     0.0000     2.0000 </r>
       <r>    -1.0618     0.0000     2.0000 </r>
       <r>    -1.0209     0.0000     2.0000 </r>
       <r>    -0.9800     0.0000     2.0000 </r>
       <r>    -0.9390     0.0000     2.0000 </r>
       <r>    -0.8981     0.0000     2.0000 </r>
       <r>    -0.8572     0.0000     2.0000 </r>
       <r>    -0.8162     0.0000     2.0000 </r>
       <r>    -0.7753     0.0000     2.0000 </r>
       <r>    -0.7344     0.0000     2.0000 </r>
       <r>    -0.6935     0.0000     2.0000 </r>
       <r>    -0.6525     0.0000     2.0000 </r>
       <r>    -0.6116     0.0000     2.0000 </r>
       <r>    -0.5707     0.0000     2.0000 </r>
       <r>    -0.5297     0.0000     2.0000 </r>
       <r>    -0.4888     0.0157     2.0006 </r>
       <r>    -0.4479     0.0199     2.0015 </r>
       <r>    -0.4069     0.0451     2.0033 </r>
       <r>    -0.3660     0.1169     2.0081 </r>
       <r>    -0.3251     0.2636     2.0189 </r>
       <r>    -0.2842     0.5745     2.0424 </r>
       <r>    -0.2432     1.2631     2.0941 </r>
       <r>    -0.2023     2.6772     2.2037 </r>
       <r>    -0.1614     5.2703     2.4194 </r>
       <r>    -0.1204     9.1048     2.7920 </r>
       <r>    -0.0795    13.0577     3.3265 </r>
       <r>    -0.0386    15.8849     3.9766 </r>
       <r>     0.0023    18.3100     4.7260 </r>
       <r>     0.0433    20.8309     5.5786 </r>
       <r>     0.0842    21.0913     6.4419 </r>
       <r>     0.1251    17.4879     7.1577 </r>
       <r>     0.1661    12.3855     7.6646 </r>
       <r>     0.2070     9.1112     8.0375 </r>
       <r>     0.2479     8.8183     8.3984 </r>
       <r>     0.2889    10.3487     8.8220 </r>
       <r>     0.3298    11.0951     9.2772 </r>
       <r>     0.3707     9.8404     9.6800 </r>
       <r>     0.4116     8.2776    10.0188 </r>
       <r>     0.4526     8.3944    10.3635 </r>
       <r>     0.4935    10.1206    10.7789 </r>
       <r>     0.5344    11.3549    11.2436 </r>
       <r>     0.5754    10.6411    11.6791 </r>
       <r>     0.6163     9.5147    12.0686 </r>
       <r>     0.6572    10.0782    12.4811 </r>
       <r>     0.6981    12.1361    12.9778 </r>
       <r>     0.7391    13.6523    13.5373 </r>
       <r>     0.7800    13.8584    14.1045 </r>
       <r>     0.8209    13.5937    14.6609 </r>
       <r>     0.8619    12.3351    15.1658 </r>
       <r>     0.9028     9.2562    15.5446 </r>
       <r>     0.9437     5.6151    15.7753 </r>
       <r>     0.9847     2.9305    15.8952 </r>
       <r>     1.0256     1.4013    15.9526 </r>
       <r>     1.0665     0.6414    15.9788 </r>
       <r>     1.1074     0.2669    15.9913 </r>
       <r>     1.1484     0.1187    15.9962 </r>
       <r>     1.1893     0.0525    15.9983 </r>
       <r>     1.2302     0.0232    15.9992 </r>
       <r>     1.2712     0.0000    16.0000 </r>
       <r>     1.3121     0.0000    16.0000 </r>
       <r>     1.3530     0.0000    16.0000 </r>
       <r>     1.3939     0.0000    16.0000 </r>
      </set>
     </set>
    </array>
   </total>
  </dos>
 </calculation>
 <structure name="finalpos" >
  <crystal>
   <varray name="basis" >
    <v>      11.10380000       0.00000000       0.00000000 </v>
    <v>       0.00000000      11.20020000       0.00000000 </v>
    <v>       0.00000000       0.00000000      32.43460000 </v>
   </varray>
   <i name="volume">   4033.72191804 </i>
   <varray name="rec_basis" >
    <v>       0.09005926       0.00000000       0.00000000 </v>
    <v>       0.00000000       0.08928412       0.00000000 </v>
    <v>       0.00000000       0.00000000       0.03083127 </v>
   </varray>
  </crystal>
  <varray name="positions" >
   <v>       0.48921743       0.63249212       0.50476612 </v>
   <v>       0.46945257       0.63218788       0.52688388 </v>
  </varray>
 </structure>
</modeling>
